
             +---------------------------------------------------+
             |                                                   |
             |                   WANNIER90                       |
             |                                                   |
             +---------------------------------------------------+
             |                                                   |
             |        Welcome to the Maximally-Localized         |
             |        Generalized Wannier Functions code         |
             |            http://www.wannier.org                 |
             |                                                   |
             |                                                   |
             |  Wannier90 Developer Group:                       |
             |    Giovanni Pizzi    (EPFL)                       |
             |    Valerio Vitale    (Cambridge)                  |
             |    David Vanderbilt  (Rutgers University)         |
             |    Nicola Marzari    (EPFL)                       |
             |    Ivo Souza         (Universidad del Pais Vasco) |
             |    Arash A. Mostofi  (Imperial College London)    |
             |    Jonathan R. Yates (University of Oxford)       |
             |                                                   |
             |  For the full list of Wannier90 3.x authors,      |
             |  please check the code documentation and the      |
             |  README on the GitHub page of the code            |
             |                                                   |
             |                                                   |
             |  Please cite                                      |
             |                                                   |
             |  [ref] "Wannier90 as a community code:            |
             |        new features and applications",            |
             |        G. Pizzi et al., J. Phys. Cond. Matt. 32,  |
             |        165902 (2020).                             |
             |        http://doi.org/10.1088/1361-648X/ab51ff    |
             |                                                   |
             |  in any publications arising from the use of      |
             |  this code. For the method please cite            |
             |                                                   |
             |  [ref] "Maximally Localized Generalised Wannier   |
             |         Functions for Composite Energy Bands"     |
             |         N. Marzari and D. Vanderbilt              |
             |         Phys. Rev. B 56 12847 (1997)              |
             |                                                   |
             |  [ref] "Maximally Localized Wannier Functions     |
             |         for Entangled Energy Bands"               |
             |         I. Souza, N. Marzari and D. Vanderbilt    |
             |         Phys. Rev. B 65 035109 (2001)             |
             |                                                   |
             |                                                   |
             | Copyright (c) 1996-2020                           |
             |        The Wannier90 Developer Group and          |
             |        individual contributors                    |
             |                                                   |
             |      Release: 3.1.0        5th March    2020      |
             |                                                   |
             | This program is free software; you can            |
             | redistribute it and/or modify it under the terms  |
             | of the GNU General Public License as published by |
             | the Free Software Foundation; either version 2 of |
             | the License, or (at your option) any later version|
             |                                                   |
             | This program is distributed in the hope that it   |
             | will be useful, but WITHOUT ANY WARRANTY; without |
             | even the implied warranty of MERCHANTABILITY or   |
             | FITNESS FOR A PARTICULAR PURPOSE. See the GNU     |
             | General Public License for more details.          |
             |                                                   |
             | You should have received a copy of the GNU General|
             | Public License along with this program; if not,   |
             | write to the Free Software Foundation, Inc.,      |
             | 675 Mass Ave, Cambridge, MA 02139, USA.           |
             |                                                   |
             +---------------------------------------------------+
             |    Execution started on 13Jul2025 at 04:22:45     |
             +---------------------------------------------------+
 
 ******************************************************************************
 * -> Using CODATA 2006 constant values                                       *
 *    (http://physics.nist.gov/cuu/Constants/index.html)                      *
 * -> Using Bohr value from CODATA                                            *
 ******************************************************************************
 

 Running in serial (with serial executable)

                                    ------
                                    SYSTEM
                                    ------

                              Lattice Vectors (Ang)
                    a_1     9.541944  -2.062067  -0.041987
                    a_2     9.541944   2.062067  -0.041987
                    a_3     9.111922   0.000000   3.503636

                   Unit Cell Volume:     139.45381  (Ang^3)

                        Reciprocal-Space Vectors (Ang^-1)
                    b_1     0.325515  -1.523516  -0.846569
                    b_2     0.325515   1.523516  -0.846569
                    b_3     0.007802   0.000000   1.773042
  
 *----------------------------------------------------------------------------*
 |   Site       Fractional Coordinate          Cartesian Coordinate (Ang)     |
 +----------------------------------------------------------------------------+
 | Bi   1   0.59928   0.59928   0.59928   |   16.89718  -0.00000   2.04933    |
 | Bi   2   0.40072   0.40072   0.40072   |   11.29864  -0.00000   1.37033    |
 | Se   1   0.00000   0.00000   0.00000   |    0.00000   0.00000   0.00000    |
 | Se   2   0.78939   0.78939   0.78939   |   22.25736  -0.00000   2.69943    |
 | Se   3   0.21061   0.21061   0.21061   |    5.93845   0.00000   0.72023    |
 *----------------------------------------------------------------------------*
                                ------------
                                K-POINT GRID
                                ------------
  
             Grid size =  6 x  6 x  6      Total points =  216
  
  
 *---------------------------------- MAIN ------------------------------------*
 |  Number of Wannier Functions               :                30             |
 |  Number of Objective Wannier Functions     :                30             |
 |  Number of input Bloch states              :                32             |
 |  Output verbosity (1=low, 5=high)          :                 1             |
 |  Timing Level (1=low, 5=high)              :                 1             |
 |  Optimisation (0=memory, 3=speed)          :                 3             |
 |  Length Unit                               :               Ang             |
 |  Post-processing setup (write *.nnkp)      :                 F             |
 |  Using Gamma-only branch of algorithms     :                 F             |
 *----------------------------------------------------------------------------*
 *------------------------------- WANNIERISE ---------------------------------*
 |  Total number of iterations                :                 0             |
 |  Number of CG steps before reset           :                 5             |
 |  Trial step length for line search         :             2.000             |
 |  Convergence tolerence                     :         0.100E-09             |
 |  Convergence window                        :                -1             |
 |  Iterations between writing output         :                 1             |
 |  Iterations between backing up to disk     :               100             |
 |  Write r^2_nm to file                      :                 F             |
 |  Write xyz WF centres to file              :                 F             |
 |  Write on-site energies <0n|H|0n> to file  :                 F             |
 |  Use guiding centre to control phases      :                 F             |
 |  Use phases for initial projections        :                 F             |
 *----------------------------------------------------------------------------*
 *------------------------------- DISENTANGLE --------------------------------*
 |  Using band disentanglement                :                 T             |
 |  Total number of iterations                :                 0             |
 |  Mixing ratio                              :             0.500             |
 |  Convergence tolerence                     :         1.000E-10             |
 |  Convergence window                        :                 3             |
 *----------------------------------------------------------------------------*
 Time to read parameters        0.055 (sec)

 *---------------------------------- K-MESH ----------------------------------*
 +----------------------------------------------------------------------------+
 |                    Distance to Nearest-Neighbour Shells                    |
 |                    ------------------------------------                    |
 |          Shell             Distance (Ang^-1)          Multiplicity         |
 |          -----             -----------------          ------------         |
 |             1                   0.110610                      2            |
 |             2                   0.221220                      2            |
 |             3                   0.295510                      6            |
 |             4                   0.302331                      6            |
 |             5                   0.328203                      6            |
 |             6                   0.331830                      2            |
 |             7                   0.346340                      6            |
 |             8                   0.390611                      6            |
 |             9                   0.415894                      6            |
 |            10                   0.442440                      2            |
 |            11                   0.471069                      6            |
 |            12                   0.500454                      6            |
 |            13                   0.507839                      6            |
 |            14                   0.519745                     12            |
 |            15                   0.553050                      2            |
 |            16                   0.553930                     12            |
 |            17                   0.561876                      6            |
 |            18                   0.587560                      6            |
 |            19                   0.591020                      6            |
 |            20                   0.593640                      6            |
 |            21                   0.604663                      6            |
 |            22                   0.606639                     12            |
 |            23                   0.614697                      6            |
 |            24                   0.640685                      6            |
 |            25                   0.656406                      6            |
 |            26                   0.658766                      6            |
 |            27                   0.663660                      2            |
 |            28                   0.673538                     12            |
 |            29                   0.691977                      6            |
 |            30                   0.692681                      6            |
 |            31                   0.712989                      6            |
 |            32                   0.750843                     12            |
 |            33                   0.757367                      6            |
 |            34                   0.759414                      6            |
 |            35                   0.774270                      2            |
 |            36                   0.776612                     12            |
 +----------------------------------------------------------------------------+
 | The b-vectors are chosen automatically                                     |
 | The following shells are used:   1,  3                                     |
 +----------------------------------------------------------------------------+
 |                        Shell   # Nearest-Neighbours                        |
 |                        -----   --------------------                        |
 |                          1               2                                 |
 |                          3               6                                 |
 +----------------------------------------------------------------------------+
 | Completeness relation is fully satisfied [Eq. (B1), PRB 56, 12847 (1997)]  |
 +----------------------------------------------------------------------------+
 |                  b_k Vectors (Ang^-1) and Weights (Ang^2)                  |
 |                  ----------------------------------------                  |
 |            No.         b_k(x)      b_k(y)      b_k(z)        w_b           |
 |            ---        --------------------------------     --------        |
 |             1         0.109805    0.000000    0.013317    39.575298        |
 |             2        -0.109805    0.000000   -0.013317    39.575298        |
 |             3         0.054253   -0.253919   -0.141095     3.877469        |
 |             4        -0.054253    0.253919    0.141095     3.877469        |
 |             5         0.054253    0.253919   -0.141095     3.877469        |
 |             6        -0.054253   -0.253919    0.141095     3.877469        |
 |             7         0.001300    0.000000    0.295507     3.877469        |
 |             8        -0.001300    0.000000   -0.295507     3.877469        |
 +----------------------------------------------------------------------------+
 |                           b_k Directions (Ang^-1)                          |
 |                           -----------------------                          |
 |            No.           x           y           z                         |
 |            ---        --------------------------------                     |
 |             1         0.109805    0.000000    0.013317                     |
 |             2         0.054253   -0.253919   -0.141095                     |
 |             3         0.054253    0.253919   -0.141095                     |
 |             4         0.001300    0.000000    0.295507                     |
 +----------------------------------------------------------------------------+
  
 Time to get kmesh              0.672 (sec)
 *============================================================================*
 |                              MEMORY ESTIMATE                               |
 |         Maximum RAM allocated during each phase of the calculation         |
 *============================================================================*
 |                        Disentanglement           60.28 Mb                  |
 |                            Wannierise:           64.69 Mb                  |
 |                          plot_wannier:           64.69 Mb                  |
 *----------------------------------------------------------------------------*
  
 Starting a new Wannier90 calculation ...


 Reading overlaps from wannier90.mmn    : File generated by VASP: unknown system

 Reading projections from wannier90.amn : File generated by VASP: unknown system

 Time to read overlaps          2.079 (sec)

 *------------------------------- DISENTANGLE --------------------------------*
 +----------------------------------------------------------------------------+
 |                              Energy  Windows                               |
 |                              ---------------                               |
 |                   Outer:   -3.00000  to   10.00000  (eV)                   |
 |                   Inner:   -3.00000  to    6.00000  (eV)                   |
 +----------------------------------------------------------------------------+
   Number of target bands to extract:   30

                   Unitarised projection of Wannier functions                  
                   ------------------------------------------                  
   A_mn = <psi_m|g_n> --> S = A.A^+ --> U = S^-1/2.A
   In dis_project... done
   Using an inner window (linner = T)
   In dis_proj_froz... done

                   Extraction of optimally-connected subspace                  
                   ------------------------------------------                  
 +---------------------------------------------------------------------+<-- DIS
 |  Iter     Omega_I(i-1)      Omega_I(i)      Delta (frac.)    Time   |<-- DIS
 +---------------------------------------------------------------------+<-- DIS

     <<< Warning: Maximum number of disentanglement iterations reached >>>
          <<< Disentanglement convergence criteria not satisfied >>>

        Final Omega_I     0.00000000 (Ang^2)

 +----------------------------------------------------------------------------+

 Time to disentangle bands      0.663 (sec)

 Writing checkpoint file wannier90.chk... done


 *------------------------------- WANNIERISE ---------------------------------*
 +--------------------------------------------------------------------+<-- CONV
 | Iter  Delta Spread     RMS Gradient      Spread (Ang^2)      Time  |<-- CONV
 +--------------------------------------------------------------------+<-- CONV

 ------------------------------------------------------------------------------
 Initial State
  WF centre and spread    1  (-11.298980,  0.000000, -1.395868 )     3.49246945
  WF centre and spread    2  (-11.298980,  0.000000, -1.395868 )     3.49246929
  WF centre and spread    3  (-11.309448,  0.000000, -1.377985 )     3.55926111
  WF centre and spread    4  (-11.309448,  0.000000, -1.377985 )     3.55926110
  WF centre and spread    5  (-11.305672, -0.000001, -1.339754 )     3.49199457
  WF centre and spread    6  (-11.305672, -0.000001, -1.339754 )     3.49199453
  WF centre and spread    7  ( 11.298974,  0.000000,  1.395868 )     3.49247339
  WF centre and spread    8  ( 11.298974,  0.000000,  1.395868 )     3.49247335
  WF centre and spread    9  ( 11.309457,  0.000000,  1.377984 )     3.55928032
  WF centre and spread   10  ( 11.309457,  0.000000,  1.377984 )     3.55928037
  WF centre and spread   11  ( 11.305666, -0.000001,  1.339754 )     3.49199842
  WF centre and spread   12  ( 11.305666, -0.000001,  1.339754 )     3.49199844
  WF centre and spread   13  (  0.000001, -0.000000, -0.000001 )     2.18042430
  WF centre and spread   14  (  0.000001, -0.000000, -0.000001 )     2.18042427
  WF centre and spread   15  ( -0.000000, -0.000000, -0.000000 )     2.29364370
  WF centre and spread   16  ( -0.000000, -0.000000, -0.000000 )     2.29364352
  WF centre and spread   17  (  0.000000,  0.000000,  0.000001 )     2.17931139
  WF centre and spread   18  (  0.000000, -0.000000,  0.000001 )     2.17931142
  WF centre and spread   19  ( -5.953555, -0.000000, -0.737021 )     2.16322320
  WF centre and spread   20  ( -5.953555, -0.000000, -0.737021 )     2.16322320
  WF centre and spread   21  ( -5.920623, -0.000000, -0.732228 )     2.24046724
  WF centre and spread   22  ( -5.920623, -0.000000, -0.732228 )     2.24046722
  WF centre and spread   23  ( -5.959297, -0.000000, -0.693783 )     2.16198642
  WF centre and spread   24  ( -5.959297, -0.000000, -0.693783 )     2.16198644
  WF centre and spread   25  (  5.953559, -0.000000,  0.737021 )     2.16321905
  WF centre and spread   26  (  5.953559, -0.000000,  0.737021 )     2.16321903
  WF centre and spread   27  (  5.920625, -0.000000,  0.732228 )     2.24045736
  WF centre and spread   28  (  5.920625, -0.000000,  0.732228 )     2.24045732
  WF centre and spread   29  (  5.959300, -0.000000,  0.693784 )     2.16198237
  WF centre and spread   30  (  5.959300, -0.000000,  0.693784 )     2.16198234
  Sum of centres and spreads (  0.000014, -0.000003,  0.000002 )    81.74438413

      0     0.817E+02     0.0000000000       81.7443840839       0.00  <-- CONV
        O_D=      0.1108209 O_OD=      2.2509535 O_TOT=     81.7443841 <-- SPRD
 ------------------------------------------------------------------------------
 Final State
  WF centre and spread    1  (-11.298980,  0.000000, -1.395868 )     3.49246945
  WF centre and spread    2  (-11.298980,  0.000000, -1.395868 )     3.49246929
  WF centre and spread    3  (-11.309448,  0.000000, -1.377985 )     3.55926111
  WF centre and spread    4  (-11.309448,  0.000000, -1.377985 )     3.55926110
  WF centre and spread    5  (-11.305672, -0.000001, -1.339754 )     3.49199457
  WF centre and spread    6  (-11.305672, -0.000001, -1.339754 )     3.49199453
  WF centre and spread    7  ( 11.298974,  0.000000,  1.395868 )     3.49247339
  WF centre and spread    8  ( 11.298974,  0.000000,  1.395868 )     3.49247335
  WF centre and spread    9  ( 11.309457,  0.000000,  1.377984 )     3.55928032
  WF centre and spread   10  ( 11.309457,  0.000000,  1.377984 )     3.55928037
  WF centre and spread   11  ( 11.305666, -0.000001,  1.339754 )     3.49199842
  WF centre and spread   12  ( 11.305666, -0.000001,  1.339754 )     3.49199844
  WF centre and spread   13  (  0.000001, -0.000000, -0.000001 )     2.18042430
  WF centre and spread   14  (  0.000001, -0.000000, -0.000001 )     2.18042427
  WF centre and spread   15  ( -0.000000, -0.000000, -0.000000 )     2.29364370
  WF centre and spread   16  ( -0.000000, -0.000000, -0.000000 )     2.29364352
  WF centre and spread   17  (  0.000000,  0.000000,  0.000001 )     2.17931139
  WF centre and spread   18  (  0.000000, -0.000000,  0.000001 )     2.17931142
  WF centre and spread   19  ( -5.953555, -0.000000, -0.737021 )     2.16322320
  WF centre and spread   20  ( -5.953555, -0.000000, -0.737021 )     2.16322320
  WF centre and spread   21  ( -5.920623, -0.000000, -0.732228 )     2.24046724
  WF centre and spread   22  ( -5.920623, -0.000000, -0.732228 )     2.24046722
  WF centre and spread   23  ( -5.959297, -0.000000, -0.693783 )     2.16198642
  WF centre and spread   24  ( -5.959297, -0.000000, -0.693783 )     2.16198644
  WF centre and spread   25  (  5.953559, -0.000000,  0.737021 )     2.16321905
  WF centre and spread   26  (  5.953559, -0.000000,  0.737021 )     2.16321903
  WF centre and spread   27  (  5.920625, -0.000000,  0.732228 )     2.24045736
  WF centre and spread   28  (  5.920625, -0.000000,  0.732228 )     2.24045732
  WF centre and spread   29  (  5.959300, -0.000000,  0.693784 )     2.16198237
  WF centre and spread   30  (  5.959300, -0.000000,  0.693784 )     2.16198234
  Sum of centres and spreads (  0.000014, -0.000003,  0.000002 )    81.74438413

         Spreads (Ang^2)       Omega I      =    79.382609641
        ================       Omega D      =     0.110820909
                               Omega OD     =     2.250953534
    Final Spread (Ang^2)       Omega Total  =    81.744384084
 ------------------------------------------------------------------------------
 Time for wannierise            0.122 (sec)

 Writing checkpoint file wannier90.chk... done

 Time for plotting              0.000 (sec)
 Total Execution Time           4.001 (sec)

 *===========================================================================*
 |                             TIMING INFORMATION                            |
 *===========================================================================*
 |    Tag                                                Ncalls      Time (s)|
 |---------------------------------------------------------------------------|
 |kmesh: get                                        :         1         0.682|
 |overlap: allocate                                 :         1         0.003|
 |overlap: read                                     :         1         1.976|
 |dis: main                                         :         1         0.650|
 |wann: main                                        :         1         0.122|
 |plot: main                                        :         1         0.000|
 *---------------------------------------------------------------------------*

 All done: wannier90 exiting

             +---------------------------------------------------+
             |                                                   |
             |                   WANNIER90                       |
             |                                                   |
             +---------------------------------------------------+
             |                                                   |
             |        Welcome to the Maximally-Localized         |
             |        Generalized Wannier Functions code         |
             |            http://www.wannier.org                 |
             |                                                   |
             |                                                   |
             |  Wannier90 Developer Group:                       |
             |    Giovanni Pizzi    (EPFL)                       |
             |    Valerio Vitale    (Cambridge)                  |
             |    David Vanderbilt  (Rutgers University)         |
             |    Nicola Marzari    (EPFL)                       |
             |    Ivo Souza         (Universidad del Pais Vasco) |
             |    Arash A. Mostofi  (Imperial College London)    |
             |    Jonathan R. Yates (University of Oxford)       |
             |                                                   |
             |  For the full list of Wannier90 3.x authors,      |
             |  please check the code documentation and the      |
             |  README on the GitHub page of the code            |
             |                                                   |
             |                                                   |
             |  Please cite                                      |
             |                                                   |
             |  [ref] "Wannier90 as a community code:            |
             |        new features and applications",            |
             |        G. Pizzi et al., J. Phys. Cond. Matt. 32,  |
             |        165902 (2020).                             |
             |        http://doi.org/10.1088/1361-648X/ab51ff    |
             |                                                   |
             |  in any publications arising from the use of      |
             |  this code. For the method please cite            |
             |                                                   |
             |  [ref] "Maximally Localized Generalised Wannier   |
             |         Functions for Composite Energy Bands"     |
             |         N. Marzari and D. Vanderbilt              |
             |         Phys. Rev. B 56 12847 (1997)              |
             |                                                   |
             |  [ref] "Maximally Localized Wannier Functions     |
             |         for Entangled Energy Bands"               |
             |         I. Souza, N. Marzari and D. Vanderbilt    |
             |         Phys. Rev. B 65 035109 (2001)             |
             |                                                   |
             |                                                   |
             | Copyright (c) 1996-2020                           |
             |        The Wannier90 Developer Group and          |
             |        individual contributors                    |
             |                                                   |
             |      Release: 3.1.0        5th March    2020      |
             |                                                   |
             | This program is free software; you can            |
             | redistribute it and/or modify it under the terms  |
             | of the GNU General Public License as published by |
             | the Free Software Foundation; either version 2 of |
             | the License, or (at your option) any later version|
             |                                                   |
             | This program is distributed in the hope that it   |
             | will be useful, but WITHOUT ANY WARRANTY; without |
             | even the implied warranty of MERCHANTABILITY or   |
             | FITNESS FOR A PARTICULAR PURPOSE. See the GNU     |
             | General Public License for more details.          |
             |                                                   |
             | You should have received a copy of the GNU General|
             | Public License along with this program; if not,   |
             | write to the Free Software Foundation, Inc.,      |
             | 675 Mass Ave, Cambridge, MA 02139, USA.           |
             |                                                   |
             +---------------------------------------------------+
             |    Execution started on 13Jul2025 at 04:23:52     |
             +---------------------------------------------------+
 
 ******************************************************************************
 * -> Using CODATA 2006 constant values                                       *
 *    (http://physics.nist.gov/cuu/Constants/index.html)                      *
 * -> Using Bohr value from CODATA                                            *
 ******************************************************************************
 

 Running in serial (with serial executable)

                                    ------
                                    SYSTEM
                                    ------

                              Lattice Vectors (Ang)
                    a_1     9.541944  -2.062067  -0.041987
                    a_2     9.541944   2.062067  -0.041987
                    a_3     9.111922   0.000000   3.503636

                   Unit Cell Volume:     139.45381  (Ang^3)

                        Reciprocal-Space Vectors (Ang^-1)
                    b_1     0.325515  -1.523516  -0.846569
                    b_2     0.325515   1.523516  -0.846569
                    b_3     0.007802   0.000000   1.773042
  
 *----------------------------------------------------------------------------*
 |   Site       Fractional Coordinate          Cartesian Coordinate (Ang)     |
 +----------------------------------------------------------------------------+
 | Bi   1   0.59928   0.59928   0.59928   |   16.89718  -0.00000   2.04933    |
 | Bi   2   0.40072   0.40072   0.40072   |   11.29864  -0.00000   1.37033    |
 | Se   1   0.00000   0.00000   0.00000   |    0.00000   0.00000   0.00000    |
 | Se   2   0.78939   0.78939   0.78939   |   22.25736  -0.00000   2.69943    |
 | Se   3   0.21061   0.21061   0.21061   |    5.93845   0.00000   0.72023    |
 *----------------------------------------------------------------------------*
                                ------------
                                K-POINT GRID
                                ------------
  
             Grid size =  6 x  6 x  6      Total points =  216
  
  
 *---------------------------------- MAIN ------------------------------------*
 |  Number of Wannier Functions               :                30             |
 |  Number of Objective Wannier Functions     :                30             |
 |  Number of input Bloch states              :                32             |
 |  Output verbosity (1=low, 5=high)          :                 1             |
 |  Timing Level (1=low, 5=high)              :                 1             |
 |  Optimisation (0=memory, 3=speed)          :                 3             |
 |  Length Unit                               :               Ang             |
 |  Post-processing setup (write *.nnkp)      :                 F             |
 |  Using Gamma-only branch of algorithms     :                 F             |
 *----------------------------------------------------------------------------*
 *------------------------------- WANNIERISE ---------------------------------*
 |  Total number of iterations                :                 0             |
 |  Number of CG steps before reset           :                 5             |
 |  Trial step length for line search         :             2.000             |
 |  Convergence tolerence                     :         0.100E-09             |
 |  Convergence window                        :                -1             |
 |  Iterations between writing output         :                 1             |
 |  Iterations between backing up to disk     :               100             |
 |  Write r^2_nm to file                      :                 F             |
 |  Write xyz WF centres to file              :                 F             |
 |  Write on-site energies <0n|H|0n> to file  :                 F             |
 |  Use guiding centre to control phases      :                 F             |
 |  Use phases for initial projections        :                 F             |
 *----------------------------------------------------------------------------*
 *------------------------------- DISENTANGLE --------------------------------*
 |  Using band disentanglement                :                 T             |
 |  Total number of iterations                :                 0             |
 |  Mixing ratio                              :             0.500             |
 |  Convergence tolerence                     :         1.000E-10             |
 |  Convergence window                        :                 3             |
 *----------------------------------------------------------------------------*
 *-------------------------------- PLOTTING ----------------------------------*
 |  Plotting interpolated bandstructure       :                 T             |
 |   Number of K-path sections                :                 9             |
 |   Divisions along first K-path section     :                40             |
 |   Output format                            :          gnuplot              |
 |   Output mode                              :               s-k             |
 *----------------------------------------------------------------------------*
 |   K-space path sections:                                                   |
 |    From: G       0.000  0.000  0.000     To: L       0.500  0.000  0.000   |
 |    From: L       0.500  0.000  0.000     To: B1      0.500  0.242 -0.242   |
 |    From: B       0.758  0.500  0.242     To: Z       0.500  0.500  0.500   |
 |    From: Z       0.500  0.500  0.500     To: G       0.000  0.000  0.000   |
 |    From: G       0.000  0.000  0.000     To: X       0.371  0.000 -0.371   |
 |    From: Q       0.629  0.371  0.000     To: F       0.500  0.500  0.000   |
 |    From: F       0.500  0.500  0.000     To: P1      0.629  0.629  0.242   |
 |    From: P1      0.629  0.629  0.242     To: Z       0.500  0.500  0.500   |
 |    From: L       0.500  0.000  0.000     To: P       0.758  0.371  0.371   |
 *----------------------------------------------------------------------------*
 |  Plotting Hamiltonian in WF basis          :                 T             |
 *----------------------------------------------------------------------------*
 Time to read parameters        0.025 (sec)

 *---------------------------------- K-MESH ----------------------------------*
 +----------------------------------------------------------------------------+
 |                    Distance to Nearest-Neighbour Shells                    |
 |                    ------------------------------------                    |
 |          Shell             Distance (Ang^-1)          Multiplicity         |
 |          -----             -----------------          ------------         |
 |             1                   0.110610                      2            |
 |             2                   0.221220                      2            |
 |             3                   0.295510                      6            |
 |             4                   0.302331                      6            |
 |             5                   0.328203                      6            |
 |             6                   0.331830                      2            |
 |             7                   0.346340                      6            |
 |             8                   0.390611                      6            |
 |             9                   0.415894                      6            |
 |            10                   0.442440                      2            |
 |            11                   0.471069                      6            |
 |            12                   0.500454                      6            |
 |            13                   0.507839                      6            |
 |            14                   0.519745                     12            |
 |            15                   0.553050                      2            |
 |            16                   0.553930                     12            |
 |            17                   0.561876                      6            |
 |            18                   0.587560                      6            |
 |            19                   0.591020                      6            |
 |            20                   0.593640                      6            |
 |            21                   0.604663                      6            |
 |            22                   0.606639                     12            |
 |            23                   0.614697                      6            |
 |            24                   0.640685                      6            |
 |            25                   0.656406                      6            |
 |            26                   0.658766                      6            |
 |            27                   0.663660                      2            |
 |            28                   0.673538                     12            |
 |            29                   0.691977                      6            |
 |            30                   0.692681                      6            |
 |            31                   0.712989                      6            |
 |            32                   0.750843                     12            |
 |            33                   0.757367                      6            |
 |            34                   0.759414                      6            |
 |            35                   0.774270                      2            |
 |            36                   0.776612                     12            |
 +----------------------------------------------------------------------------+
 | The b-vectors are chosen automatically                                     |
 | The following shells are used:   1,  3                                     |
 +----------------------------------------------------------------------------+
 |                        Shell   # Nearest-Neighbours                        |
 |                        -----   --------------------                        |
 |                          1               2                                 |
 |                          3               6                                 |
 +----------------------------------------------------------------------------+
 | Completeness relation is fully satisfied [Eq. (B1), PRB 56, 12847 (1997)]  |
 +----------------------------------------------------------------------------+
 |                  b_k Vectors (Ang^-1) and Weights (Ang^2)                  |
 |                  ----------------------------------------                  |
 |            No.         b_k(x)      b_k(y)      b_k(z)        w_b           |
 |            ---        --------------------------------     --------        |
 |             1         0.109805    0.000000    0.013317    39.575298        |
 |             2        -0.109805    0.000000   -0.013317    39.575298        |
 |             3         0.054253   -0.253919   -0.141095     3.877469        |
 |             4        -0.054253    0.253919    0.141095     3.877469        |
 |             5         0.054253    0.253919   -0.141095     3.877469        |
 |             6        -0.054253   -0.253919    0.141095     3.877469        |
 |             7         0.001300    0.000000    0.295507     3.877469        |
 |             8        -0.001300    0.000000   -0.295507     3.877469        |
 +----------------------------------------------------------------------------+
 |                           b_k Directions (Ang^-1)                          |
 |                           -----------------------                          |
 |            No.           x           y           z                         |
 |            ---        --------------------------------                     |
 |             1         0.109805    0.000000    0.013317                     |
 |             2         0.054253   -0.253919   -0.141095                     |
 |             3         0.054253    0.253919   -0.141095                     |
 |             4         0.001300    0.000000    0.295507                     |
 +----------------------------------------------------------------------------+
  
 Time to get kmesh              0.510 (sec)
 *============================================================================*
 |                              MEMORY ESTIMATE                               |
 |         Maximum RAM allocated during each phase of the calculation         |
 *============================================================================*
 |                        Disentanglement           60.28 Mb                  |
 |                            Wannierise:           64.69 Mb                  |
 |                          plot_wannier:           64.69 Mb                  |
 *----------------------------------------------------------------------------*
  
 Reading restart information from file wannier90.chk :
 written on 13Jul2025 at 04:23:40 ... done

 Restarting Wannier90 from plotting routines ...

 *---------------------------------------------------------------------------*
 |                               PLOTTING                                    |
 *---------------------------------------------------------------------------*

 !!!! Kpoint grid does not include Gamma.  Interpolation may be incorrect. !!!!

 Calculating interpolated band-structure

 Time to calculate interpolated band structure       6.341 (sec)

 Time for plotting              7.171 (sec)
 Total Execution Time           7.752 (sec)

 *===========================================================================*
 |                             TIMING INFORMATION                            |
 *===========================================================================*
 |    Tag                                                Ncalls      Time (s)|
 |---------------------------------------------------------------------------|
 |kmesh: get                                        :         1         0.510|
 |plot: main                                        :         1         7.171|
 *---------------------------------------------------------------------------*

 All done: wannier90 exiting
----------------------------------------------------------------*
 |  Plotting Hamiltonian in WF basis          :                 T             |
 *----------------------------------------------------------------------------*
 Time to read parameters        0.057 (sec)

 *---------------------------------- K-MESH ----------------------------------*
 +----------------------------------------------------------------------------+
 |                    Distance to Nearest-Neighbour Shells                    |
 |                    ------------------------------------                    |
 |          Shell             Distance (Ang^-1)          Multiplicity         |
 |          -----             -----------------          ------------         |
 |             1                   0.110610                      2            |
 |             2                   0.221220                      2            |
 |             3                   0.295510                      6            |
 |             4                   0.302331                      6            |
 |             5                   0.328203                      6            |
 |             6                   0.331830                      2            |
 |             7                   0.346340                      6            |
 |             8                   0.390611                      6            |
 |             9                   0.415894                      6            |
 |            10                   0.442440                      2            |
 |            11                   0.471069                      6            |
 |            12                   0.500454                      6            |
 |            13                   0.507839                      6            |
 |            14                   0.519745                     12            |
 |            15                   0.553050                      2            |
 |            16                   0.553930                     12            |
 |            17                   0.561876                      6            |
 |            18                   0.587560                      6            |
 |            19                   0.591020                      6            |
 |            20                   0.593640                      6            |
 |            21                   0.604663                      6            |
 |            22                   0.606639                     12            |
 |            23                   0.614697                      6            |
 |            24                   0.640685                      6            |
 |            25                   0.656406                      6            |
 |            26                   0.658766                      6            |
 |            27                   0.663660                      2            |
 |            28                   0.673538                     12            |
 |            29                   0.691977                      6            |
 |            30                   0.692681                      6            |
 |            31                   0.712989                      6            |
 |            32                   0.750843                     12            |
 |            33                   0.757367                      6            |
 |            34                   0.759414                      6            |
 |            35                   0.774270                      2            |
 |            36                   0.776612                     12            |
 +----------------------------------------------------------------------------+
 | The b-vectors are chosen automatically                                     |
 | The following shells are used:   1,  3                                     |
 +----------------------------------------------------------------------------+
 |                        Shell   # Nearest-Neighbours                        |
 |                        -----   --------------------                        |
 |                          1               2                                 |
 |                          3               6                                 |
 +----------------------------------------------------------------------------+
 | Completeness relation is fully satisfied [Eq. (B1), PRB 56, 12847 (1997)]  |
 +----------------------------------------------------------------------------+
 |                  b_k Vectors (Ang^-1) and Weights (Ang^2)                  |
 |                  ----------------------------------------                  |
 |            No.         b_k(x)      b_k(y)      b_k(z)        w_b           |
 |            ---        --------------------------------     --------        |
 |             1         0.109805    0.000000    0.013317    39.575298        |
 |             2        -0.109805    0.000000   -0.013317    39.575298        |
 |             3         0.054253   -0.253919   -0.141095     3.877469        |
 |             4        -0.054253    0.253919    0.141095     3.877469        |
 |             5         0.054253    0.253919   -0.141095     3.877469        |
 |             6        -0.054253   -0.253919    0.141095     3.877469        |
 |             7         0.001300    0.000000    0.295507     3.877469        |
 |             8        -0.001300    0.000000   -0.295507     3.877469        |
 +----------------------------------------------------------------------------+
 |                           b_k Directions (Ang^-1)                          |
 |                           -----------------------                          |
 |            No.           x           y           z                         |
 |            ---        --------------------------------                     |
 |             1         0.109805    0.000000    0.013317                     |
 |             2         0.054253   -0.253919   -0.141095                     |
 |             3         0.054253    0.253919   -0.141095                     |
 |             4         0.001300    0.000000    0.295507                     |
 +----------------------------------------------------------------------------+
  
 Time to get kmesh              0.663 (sec)
 *============================================================================*
 |                              MEMORY ESTIMATE                               |
 |         Maximum RAM allocated during each phase of the calculation         |
 *============================================================================*
 |                        Disentanglement           60.28 Mb                  |
 |                            Wannierise:           64.69 Mb                  |
 |                          plot_wannier:           64.69 Mb                  |
 *----------------------------------------------------------------------------*
  
 Reading restart information from file wannier90.chk :
 written on 13Jul2025 at 04:23:40 ... done

 Restarting Wannier90 from plotting routines ...

 *---------------------------------------------------------------------------*
 |                               PLOTTING                                    |
 *---------------------------------------------------------------------------*

 !!!! Kpoint grid does not include Gamma.  Interpolation may be incorrect. !!!!

 Calculating interpolated band-structure

 Time to calculate interpolated band structure       6.337 (sec)

 Time for plotting              7.468 (sec)
 Total Execution Time           8.248 (sec)

 *===========================================================================*
 |                             TIMING INFORMATION                            |
 *===========================================================================*
 |    Tag                                                Ncalls      Time (s)|
 |---------------------------------------------------------------------------|
 |kmesh: get                                        :         1         0.663|
 |plot: main                                        :         1         7.468|
 *---------------------------------------------------------------------------*

 All done: wannier90 exiting
----------------------------------------------------------------*
 |  Plotting Hamiltonian in WF basis          :                 T             |
 *----------------------------------------------------------------------------*
 Time to read parameters        0.058 (sec)

 *---------------------------------- K-MESH ----------------------------------*
 +----------------------------------------------------------------------------+
 |                    Distance to Nearest-Neighbour Shells                    |
 |                    ------------------------------------                    |
 |          Shell             Distance (Ang^-1)          Multiplicity         |
 |          -----             -----------------          ------------         |
 |             1                   0.110610                      2            |
 |             2                   0.221220                      2            |
 |             3                   0.295510                      6            |
 |             4                   0.302331                      6            |
 |             5                   0.328203                      6            |
 |             6                   0.331830                      2            |
 |             7                   0.346340                      6            |
 |             8                   0.390611                      6            |
 |             9                   0.415894                      6            |
 |            10                   0.442440                      2            |
 |            11                   0.471069                      6            |
 |            12                   0.500454                      6            |
 |            13                   0.507839                      6            |
 |            14                   0.519745                     12            |
 |            15                   0.553050                      2            |
 |            16                   0.553930                     12            |
 |            17                   0.561876                      6            |
 |            18                   0.587560                      6            |
 |            19                   0.591020                      6            |
 |            20                   0.593640                      6            |
 |            21                   0.604663                      6            |
 |            22                   0.606639                     12            |
 |            23                   0.614697                      6            |
 |            24                   0.640685                      6            |
 |            25                   0.656406                      6            |
 |            26                   0.658766                      6            |
 |            27                   0.663660                      2            |
 |            28                   0.673538                     12            |
 |            29                   0.691977                      6            |
 |            30                   0.692681                      6            |
 |            31                   0.712989                      6            |
 |            32                   0.750843                     12            |
 |            33                   0.757367                      6            |
 |            34                   0.759414                      6            |
 |            35                   0.774270                      2            |
 |            36                   0.776612                     12            |
 +----------------------------------------------------------------------------+
 | The b-vectors are chosen automatically                                     |
 | The following shells are used:   1,  3                                     |
 +----------------------------------------------------------------------------+
 |                        Shell   # Nearest-Neighbours                        |
 |                        -----   --------------------                        |
 |                          1               2                                 |
 |                          3               6                                 |
 +----------------------------------------------------------------------------+
 | Completeness relation is fully satisfied [Eq. (B1), PRB 56, 12847 (1997)]  |
 +----------------------------------------------------------------------------+
 |                  b_k Vectors (Ang^-1) and Weights (Ang^2)                  |
 |                  ----------------------------------------                  |
 |            No.         b_k(x)      b_k(y)      b_k(z)        w_b           |
 |            ---        --------------------------------     --------        |
 |             1         0.109805    0.000000    0.013317    39.575298        |
 |             2        -0.109805    0.000000   -0.013317    39.575298        |
 |             3         0.054253   -0.253919   -0.141095     3.877469        |
 |             4        -0.054253    0.253919    0.141095     3.877469        |
 |             5         0.054253    0.253919   -0.141095     3.877469        |
 |             6        -0.054253   -0.253919    0.141095     3.877469        |
 |             7         0.001300    0.000000    0.295507     3.877469        |
 |             8        -0.001300    0.000000   -0.295507     3.877469        |
 +----------------------------------------------------------------------------+
 |                           b_k Directions (Ang^-1)                          |
 |                           -----------------------                          |
 |            No.           x           y           z                         |
 |            ---        --------------------------------                     |
 |             1         0.109805    0.000000    0.013317                     |
 |             2         0.054253   -0.253919   -0.141095                     |
 |             3         0.054253    0.253919   -0.141095                     |
 |             4         0.001300    0.000000    0.295507                     |
 +----------------------------------------------------------------------------+
  
 Time to get kmesh              0.673 (sec)
 *============================================================================*
 |                              MEMORY ESTIMATE                               |
 |         Maximum RAM allocated during each phase of the calculation         |
 *============================================================================*
 |                        Disentanglement           60.28 Mb                  |
 |                            Wannierise:           64.69 Mb                  |
 |                          plot_wannier:           64.69 Mb                  |
 *----------------------------------------------------------------------------*
  
 Reading restart information from file wannier90.chk :
 written on 13Jul2025 at 04:23:40 ... done

 Restarting Wannier90 from plotting routines ...

 *---------------------------------------------------------------------------*
 |                               PLOTTING                                    |
 *---------------------------------------------------------------------------*

 !!!! Kpoint grid does not include Gamma.  Interpolation may be incorrect. !!!!

 Calculating interpolated band-structure

 Time to calculate interpolated band structure       6.440 (sec)

 Time for plotting              7.625 (sec)
 Total Execution Time           8.420 (sec)

 *===========================================================================*
 |                             TIMING INFORMATION                            |
 *===========================================================================*
 |    Tag                                                Ncalls      Time (s)|
 |---------------------------------------------------------------------------|
 |kmesh: get                                        :         1         0.673|
 |plot: main                                        :         1         7.625|
 *---------------------------------------------------------------------------*

 All done: wannier90 exiting
----------------------------------------------------------------*
 |  Plotting Hamiltonian in WF basis          :                 T             |
 *----------------------------------------------------------------------------*
 Time to read parameters        0.058 (sec)

 *---------------------------------- K-MESH ----------------------------------*
 +----------------------------------------------------------------------------+
 |                    Distance to Nearest-Neighbour Shells                    |
 |                    ------------------------------------                    |
 |          Shell             Distance (Ang^-1)          Multiplicity         |
 |          -----             -----------------          ------------         |
 |             1                   0.110610                      2            |
 |             2                   0.221220                      2            |
 |             3                   0.295510                      6            |
 |             4                   0.302331                      6            |
 |             5                   0.328203                      6            |
 |             6                   0.331830                      2            |
 |             7                   0.346340                      6            |
 |             8                   0.390611                      6            |
 |             9                   0.415894                      6            |
 |            10                   0.442440                      2            |
 |            11                   0.471069                      6            |
 |            12                   0.500454                      6            |
 |            13                   0.507839                      6            |
 |            14                   0.519745                     12            |
 |            15                   0.553050                      2            |
 |            16                   0.553930                     12            |
 |            17                   0.561876                      6            |
 |            18                   0.587560                      6            |
 |            19                   0.591020                      6            |
 |            20                   0.593640                      6            |
 |            21                   0.604663                      6            |
 |            22                   0.606639                     12            |
 |            23                   0.614697                      6            |
 |            24                   0.640685                      6            |
 |            25                   0.656406                      6            |
 |            26                   0.658766                      6            |
 |            27                   0.663660                      2            |
 |            28                   0.673538                     12            |
 |            29                   0.691977                      6            |
 |            30                   0.692681                      6            |
 |            31                   0.712989                      6            |
 |            32                   0.750843                     12            |
 |            33                   0.757367                      6            |
 |            34                   0.759414                      6            |
 |            35                   0.774270                      2            |
 |            36                   0.776612                     12            |
 +----------------------------------------------------------------------------+
 | The b-vectors are chosen automatically                                     |
 | The following shells are used:   1,  3                                     |
 +----------------------------------------------------------------------------+
 |                        Shell   # Nearest-Neighbours                        |
 |                        -----   --------------------                        |
 |                          1               2                                 |
 |                          3               6                                 |
 +----------------------------------------------------------------------------+
 | Completeness relation is fully satisfied [Eq. (B1), PRB 56, 12847 (1997)]  |
 +----------------------------------------------------------------------------+
 |                  b_k Vectors (Ang^-1) and Weights (Ang^2)                  |
 |                  ----------------------------------------                  |
 |            No.         b_k(x)      b_k(y)      b_k(z)        w_b           |
 |            ---        --------------------------------     --------        |
 |             1         0.109805    0.000000    0.013317    39.575298        |
 |             2        -0.109805    0.000000   -0.013317    39.575298        |
 |             3         0.054253   -0.253919   -0.141095     3.877469        |
 |             4        -0.054253    0.253919    0.141095     3.877469        |
 |             5         0.054253    0.253919   -0.141095     3.877469        |
 |             6        -0.054253   -0.253919    0.141095     3.877469        |
 |             7         0.001300    0.000000    0.295507     3.877469        |
 |             8        -0.001300    0.000000   -0.295507     3.877469        |
 +----------------------------------------------------------------------------+
 |                           b_k Directions (Ang^-1)                          |
 |                           -----------------------                          |
 |            No.           x           y           z                         |
 |            ---        --------------------------------                     |
 |             1         0.109805    0.000000    0.013317                     |
 |             2         0.054253   -0.253919   -0.141095                     |
 |             3         0.054253    0.253919   -0.141095                     |
 |             4         0.001300    0.000000    0.295507                     |
 +----------------------------------------------------------------------------+
  
 Time to get kmesh              0.672 (sec)
 *============================================================================*
 |                              MEMORY ESTIMATE                               |
 |         Maximum RAM allocated during each phase of the calculation         |
 *============================================================================*
 |                        Disentanglement           60.28 Mb                  |
 |                            Wannierise:           64.69 Mb                  |
 |                          plot_wannier:           64.69 Mb                  |
 *----------------------------------------------------------------------------*
  
 Reading restart information from file wannier90.chk :
 written on 13Jul2025 at 04:23:40 ... done

 Restarting Wannier90 from plotting routines ...

 *---------------------------------------------------------------------------*
 |                               PLOTTING                                    |
 *---------------------------------------------------------------------------*

 !!!! Kpoint grid does not include Gamma.  Interpolation may be incorrect. !!!!

 Calculating interpolated band-structure

 Time to calculate interpolated band structure       6.359 (sec)

 Time for plotting              7.542 (sec)
 Total Execution Time           8.335 (sec)

 *===========================================================================*
 |                             TIMING INFORMATION                            |
 *===========================================================================*
 |    Tag                                                Ncalls      Time (s)|
 |---------------------------------------------------------------------------|
 |kmesh: get                                        :         1         0.672|
 |plot: main                                        :         1         7.542|
 *---------------------------------------------------------------------------*

 All done: wannier90 exiting
----------------------------------------------------------------*
 |  Plotting Hamiltonian in WF basis          :                 T             |
 *----------------------------------------------------------------------------*
 Time to read parameters        0.058 (sec)

 *---------------------------------- K-MESH ----------------------------------*
 +----------------------------------------------------------------------------+
 |                    Distance to Nearest-Neighbour Shells                    |
 |                    ------------------------------------                    |
 |          Shell             Distance (Ang^-1)          Multiplicity         |
 |          -----             -----------------          ------------         |
 |             1                   0.110610                      2            |
 |             2                   0.221220                      2            |
 |             3                   0.295510                      6            |
 |             4                   0.302331                      6            |
 |             5                   0.328203                      6            |
 |             6                   0.331830                      2            |
 |             7                   0.346340                      6            |
 |             8                   0.390611                      6            |
 |             9                   0.415894                      6            |
 |            10                   0.442440                      2            |
 |            11                   0.471069                      6            |
 |            12                   0.500454                      6            |
 |            13                   0.507839                      6            |
 |            14                   0.519745                     12            |
 |            15                   0.553050                      2            |
 |            16                   0.553930                     12            |
 |            17                   0.561876                      6            |
 |            18                   0.587560                      6            |
 |            19                   0.591020                      6            |
 |            20                   0.593640                      6            |
 |            21                   0.604663                      6            |
 |            22                   0.606639                     12            |
 |            23                   0.614697                      6            |
 |            24                   0.640685                      6            |
 |            25                   0.656406                      6            |
 |            26                   0.658766                      6            |
 |            27                   0.663660                      2            |
 |            28                   0.673538                     12            |
 |            29                   0.691977                      6            |
 |            30                   0.692681                      6            |
 |            31                   0.712989                      6            |
 |            32                   0.750843                     12            |
 |            33                   0.757367                      6            |
 |            34                   0.759414                      6            |
 |            35                   0.774270                      2            |
 |            36                   0.776612                     12            |
 +----------------------------------------------------------------------------+
 | The b-vectors are chosen automatically                                     |
 | The following shells are used:   1,  3                                     |
 +----------------------------------------------------------------------------+
 |                        Shell   # Nearest-Neighbours                        |
 |                        -----   --------------------                        |
 |                          1               2                                 |
 |                          3               6                                 |
 +----------------------------------------------------------------------------+
 | Completeness relation is fully satisfied [Eq. (B1), PRB 56, 12847 (1997)]  |
 +----------------------------------------------------------------------------+
 |                  b_k Vectors (Ang^-1) and Weights (Ang^2)                  |
 |                  ----------------------------------------                  |
 |            No.         b_k(x)      b_k(y)      b_k(z)        w_b           |
 |            ---        --------------------------------     --------        |
 |             1         0.109805    0.000000    0.013317    39.575298        |
 |             2        -0.109805    0.000000   -0.013317    39.575298        |
 |             3         0.054253   -0.253919   -0.141095     3.877469        |
 |             4        -0.054253    0.253919    0.141095     3.877469        |
 |             5         0.054253    0.253919   -0.141095     3.877469        |
 |             6        -0.054253   -0.253919    0.141095     3.877469        |
 |             7         0.001300    0.000000    0.295507     3.877469        |
 |             8        -0.001300    0.000000   -0.295507     3.877469        |
 +----------------------------------------------------------------------------+
 |                           b_k Directions (Ang^-1)                          |
 |                           -----------------------                          |
 |            No.           x           y           z                         |
 |            ---        --------------------------------                     |
 |             1         0.109805    0.000000    0.013317                     |
 |             2         0.054253   -0.253919   -0.141095                     |
 |             3         0.054253    0.253919   -0.141095                     |
 |             4         0.001300    0.000000    0.295507                     |
 +----------------------------------------------------------------------------+
  
 Time to get kmesh              0.671 (sec)
 *============================================================================*
 |                              MEMORY ESTIMATE                               |
 |         Maximum RAM allocated during each phase of the calculation         |
 *============================================================================*
 |                        Disentanglement           60.28 Mb                  |
 |                            Wannierise:           64.69 Mb                  |
 |                          plot_wannier:           64.69 Mb                  |
 *----------------------------------------------------------------------------*
  
 Reading restart information from file wannier90.chk :
 written on 13Jul2025 at 04:23:40 ... done

 Restarting Wannier90 from plotting routines ...

 *---------------------------------------------------------------------------*
 |                               PLOTTING                                    |
 *---------------------------------------------------------------------------*

 !!!! Kpoint grid does not include Gamma.  Interpolation may be incorrect. !!!!

 Calculating interpolated band-structure

 Time to calculate interpolated band structure       6.347 (sec)

 Time for plotting              7.461 (sec)
 Total Execution Time           8.250 (sec)

 *===========================================================================*
 |                             TIMING INFORMATION                            |
 *===========================================================================*
 |    Tag                                                Ncalls      Time (s)|
 |---------------------------------------------------------------------------|
 |kmesh: get                                        :         1         0.671|
 |plot: main                                        :         1         7.461|
 *---------------------------------------------------------------------------*

 All done: wannier90 exiting
----------------------------------------------------------------*
 |  Plotting Hamiltonian in WF basis          :                 T             |
 *----------------------------------------------------------------------------*
 Time to read parameters        0.056 (sec)

 *---------------------------------- K-MESH ----------------------------------*
 +----------------------------------------------------------------------------+
 |                    Distance to Nearest-Neighbour Shells                    |
 |                    ------------------------------------                    |
 |          Shell             Distance (Ang^-1)          Multiplicity         |
 |          -----             -----------------          ------------         |
 |             1                   0.110610                      2            |
 |             2                   0.221220                      2            |
 |             3                   0.295510                      6            |
 |             4                   0.302331                      6            |
 |             5                   0.328203                      6            |
 |             6                   0.331830                      2            |
 |             7                   0.346340                      6            |
 |             8                   0.390611                      6            |
 |             9                   0.415894                      6            |
 |            10                   0.442440                      2            |
 |            11                   0.471069                      6            |
 |            12                   0.500454                      6            |
 |            13                   0.507839                      6            |
 |            14                   0.519745                     12            |
 |            15                   0.553050                      2            |
 |            16                   0.553930                     12            |
 |            17                   0.561876                      6            |
 |            18                   0.587560                      6            |
 |            19                   0.591020                      6            |
 |            20                   0.593640                      6            |
[...]
 |             2        -0.109805    0.000000   -0.013317    39.575298        |
 |             3         0.054253   -0.253919   -0.141095     3.877469        |
 |             4        -0.054253    0.253919    0.141095     3.877469        |
 |             5         0.054253    0.253919   -0.141095     3.877469        |
 |             6        -0.054253   -0.253919    0.141095     3.877469        |
 |             7         0.001300    0.000000    0.295507     3.877469        |
 |             8        -0.001300    0.000000   -0.295507     3.877469        |
 +----------------------------------------------------------------------------+
 |                           b_k Directions (Ang^-1)                          |
 |                           -----------------------                          |
 |            No.           x           y           z                         |
 |            ---        --------------------------------                     |
 |             1         0.109805    0.000000    0.013317                     |
 |             2         0.054253   -0.253919   -0.141095                     |
 |             3         0.054253    0.253919   -0.141095                     |
 |             4         0.001300    0.000000    0.295507                     |
 +----------------------------------------------------------------------------+
  
 Time to get kmesh              0.667 (sec)
 *============================================================================*
 |                              MEMORY ESTIMATE                               |
 |         Maximum RAM allocated during each phase of the calculation         |
 *============================================================================*
 |                        Disentanglement           60.28 Mb                  |
 |                            Wannierise:           64.69 Mb                  |
 |                          plot_wannier:           64.69 Mb                  |
 *----------------------------------------------------------------------------*
  
 Reading restart information from file wannier90.chk :
 written on 13Jul2025 at 04:23:40 ... done

 Restarting Wannier90 from plotting routines ...

 *---------------------------------------------------------------------------*
 |                               PLOTTING                                    |
 *---------------------------------------------------------------------------*

 !!!! Kpoint grid does not include Gamma.  Interpolation may be incorrect. !!!!

 Calculating interpolated band-structure

 Time to calculate interpolated band structure       6.368 (sec)

 Time for plotting              7.613 (sec)
 Total Execution Time           8.408 (sec)

 *===========================================================================*
 |                             TIMING INFORMATION                            |
 *===========================================================================*
 |    Tag                                                Ncalls      Time (s)|
 |---------------------------------------------------------------------------|
 |kmesh: get                                        :         1         0.667|
 |plot: main                                        :         1         7.613|
 *---------------------------------------------------------------------------*

 All done: wannier90 exiting
----------------------------------------------------------------*
 |  Plotting Hamiltonian in WF basis          :                 T             |
 *----------------------------------------------------------------------------*
 Time to read parameters        0.061 (sec)

 *---------------------------------- K-MESH ----------------------------------*
 +----------------------------------------------------------------------------+
 |                    Distance to Nearest-Neighbour Shells                    |
 |                    ------------------------------------                    |
 |          Shell             Distance (Ang^-1)          Multiplicity         |
 |          -----             -----------------          ------------         |
 |             1                   0.110610                      2            |
 |             2                   0.221220                      2            |
 |             3                   0.295510                      6            |
 |             4                   0.302331                      6            |
 |             5                   0.328203                      6            |
 |             6                   0.331830                      2            |
 |             7                   0.346340                      6            |
 |             8                   0.390611                      6            |
 |             9                   0.415894                      6            |
 |            10                   0.442440                      2            |
 |            11                   0.471069                      6            |
 |            12                   0.500454                      6            |
 |            13                   0.507839                      6            |
 |            14                   0.519745                     12            |
 |            15                   0.553050                      2            |
 |            16                   0.553930                     12            |
 |            17                   0.561876                      6            |
 |            18                   0.587560                      6            |
 |            19                   0.591020                      6            |
 |            20                   0.593640                      6            |
 |            21                   0.604663                      6            |
 |            22                   0.606639                     12            |
 |            23                   0.614697                      6            |
 |            24                   0.640685                      6            |
 |            25                   0.656406                      6            |
 |            26                   0.658766                      6            |
 |            27                   0.663660                      2            |
 |            28                   0.673538                     12            |
 |            29                   0.691977                      6            |
 |            30                   0.692681                      6            |
 |            31                   0.712989                      6            |
 |            32                   0.750843                     12            |
 |            33                   0.757367                      6            |
 |            34                   0.759414                      6            |
 |            35                   0.774270                      2            |
 |            36                   0.776612                     12            |
 +----------------------------------------------------------------------------+
 | The b-vectors are chosen automatically                                     |
 | The following shells are used:   1,  3                                     |
 +----------------------------------------------------------------------------+
 |                        Shell   # Nearest-Neighbours                        |
 |                        -----   --------------------                        |
 |                          1               2                                 |
 |                          3               6                                 |
 +----------------------------------------------------------------------------+
 | Completeness relation is fully satisfied [Eq. (B1), PRB 56, 12847 (1997)]  |
 +----------------------------------------------------------------------------+
 |                  b_k Vectors (Ang^-1) and Weights (Ang^2)                  |
 |                  ----------------------------------------                  |
 |            No.         b_k(x)      b_k(y)      b_k(z)        w_b           |
 |            ---        --------------------------------     --------        |
 |             1         0.109805    0.000000    0.013317    39.575298        |
 |             2        -0.109805    0.000000   -0.013317    39.575298        |
 |             3         0.054253   -0.253919   -0.141095     3.877469        |
 |             4        -0.054253    0.253919    0.141095     3.877469        |
 |             5         0.054253    0.253919   -0.141095     3.877469        |
 |             6        -0.054253   -0.253919    0.141095     3.877469        |
 |             7         0.001300    0.000000    0.295507     3.877469        |
 |             8        -0.001300    0.000000   -0.295507     3.877469        |
 +----------------------------------------------------------------------------+
 |                           b_k Directions (Ang^-1)                          |
 |                           -----------------------                          |
 |            No.           x           y           z                         |
 |            ---        --------------------------------                     |
 |             1         0.109805    0.000000    0.013317                     |
 |             2         0.054253   -0.253919   -0.141095                     |
 |             3         0.054253    0.253919   -0.141095                     |
 |             4         0.001300    0.000000    0.295507                     |
 +----------------------------------------------------------------------------+
  
 Time to get kmesh              0.676 (sec)
 *============================================================================*
 |                              MEMORY ESTIMATE                               |
 |         Maximum RAM allocated during each phase of the calculation         |
 *============================================================================*
 |                        Disentanglement           60.28 Mb                  |
 |                            Wannierise:           64.69 Mb                  |
 |                          plot_wannier:           64.69 Mb                  |
 *----------------------------------------------------------------------------*
  
 Reading restart information from file wannier90.chk :
 written on 13Jul2025 at 04:23:40 ... done

 Restarting Wannier90 from plotting routines ...

 *---------------------------------------------------------------------------*
 |                               PLOTTING                                    |
 *---------------------------------------------------------------------------*

 !!!! Kpoint grid does not include Gamma.  Interpolation may be incorrect. !!!!

 Calculating interpolated band-structure

 Time to calculate interpolated band structure       6.387 (sec)

 Time for plotting              7.686 (sec)
 Total Execution Time           8.490 (sec)

 *===========================================================================*
 |                             TIMING INFORMATION                            |
 *===========================================================================*
 |    Tag                                                Ncalls      Time (s)|
 |---------------------------------------------------------------------------|
 |kmesh: get                                        :         1         0.676|
 |plot: main                                        :         1         7.686|
 *---------------------------------------------------------------------------*

 All done: wannier90 exiting
      1               2                                 |
 |                          3               6                                 |
 +----------------------------------------------------------------------------+
 | Completeness relation is fully satisfied [Eq. (B1), PRB 56, 12847 (1997)]  |
 +----------------------------------------------------------------------------+
 |                  b_k Vectors (Ang^-1) and Weights (Ang^2)                  |
 |                  ----------------------------------------                  |
 |            No.         b_k(x)      b_k(y)      b_k(z)        w_b           |
 |            ---        --------------------------------     --------        |
 |             1         0.109805    0.000000    0.013317    39.575298        |
 |             2        -0.109805    0.000000   -0.013317    39.575298        |
 |             3         0.054253   -0.253919   -0.141095     3.877469        |
 |             4        -0.054253    0.253919    0.141095     3.877469        |
 |             5         0.054253    0.253919   -0.141095     3.877469        |
 |             6        -0.054253   -0.253919    0.141095     3.877469        |
 |             7         0.001300    0.000000    0.295507     3.877469        |
 |             8        -0.001300    0.000000   -0.295507     3.877469        |
 +----------------------------------------------------------------------------+
 |                           b_k Directions (Ang^-1)                          |
 |                           -----------------------                        |    |            No.           x           y           z                         |
 |            ---        --------------------------------                     |
 |             1         0.109805    0.000000    0.013317                     |
 |             2         0.054253   -0.253919   -0.141095                     |
 |             3         0.054253    0.253919   -0.141095                     |
 |             4         0.001300    0.000000    0.295507                     |
 +----------------------------------------------------------------------------+
  
 Time to get kmesh              0.665 (sec)
 *============================================================================*
 |                              MEMORY ESTIMATE                               |
 |         Maximum RAM allocated during each phase of the calculation         |
 *============================================================================*
 |                        Disentanglement           60.28 Mb                  |
 |                            Wannierise:           64.69 Mb                  |
 |                          plot_wannier:           64.69 Mb                  |
 *----------------------------------------------------------------------------*
  
 Reading restart information from file wannier90.chk :
 written on 13Jul2025 at 04:23:40 ... done

 Restarting Wannier90 from plotting routines ...

 *---------------------------------------------------------------------------*
 |                               PLOTTING                                    |
 *---------------------------------------------------------------------------*

 !!!! Kpoint grid does not include Gamma.  Interpolation may be incorrect. !!!!

 Calculating interpolated band-structure

 Time to calculate interpolated band structure       6.367 (sec)

 Time for plotting              7.626 (sec)
 Total Execution Time           8.418 (sec)

 *===========================================================================*
 |                             TIMING INFORMATION                            |
 *===========================================================================*
 |    Tag                                                Ncalls      Time (s)|
 |---------------------------------------------------------------------------|
 |kmesh: get                                        :         1         0.665|
 |plot: main                                        :         1         7.626|
 *---------------------------------------------------------------------------*

 All done: wannier90 exiting
      1               2                                 |
 |                          3               6                                 |
 +----------------------------------------------------------------------------+
 | Completeness relation is fully satisfied [Eq. (B1), PRB 56, 12847 (1997)]  |
 +----------------------------------------------------------------------------+
 |                  b_k Vectors (Ang^-1) and Weights (Ang^2)                  |
 |                  ----------------------------------------                  |
 |            No.         b_k(x)      b_k(y)      b_k(z)        w_b           |
 |            ---        --------------------------------     --------        |
 |             1         0.109805    0.000000    0.013317    39.575298        |
 |             2        -0.109805    0.000000   -0.013317    39.575298        |
 |             3         0.054253   -0.253919   -0.141095     3.877469        |
 |             4        -0.054253    0.253919    0.141095     3.877469        |
 |             5         0.054253    0.253919   -0.141095     3.877469        |
 |             6        -0.054253   -0.253919    0.141095     3.877469        |
 |             7         0.001300    0.000000    0.295507     3.877469        |
 |             8        -0.001300    0.000000   -0.295507     3.877469        |
 +----------------------------------------------------------------------------+
 |                           b_k Directions (Ang^-1)                          |
 |                           -----------------------                          |
 |            No.           x           y           z                         |
 |            ---        --------------------------------                     |
 |             1         0.109805    0.000000    0.013317                     |
 |             2         0.054253   -0.253919   -0.141095                     |
 |             3         0.054253    0.253919   -0.141095                     |
 |             4         0.001300    0.000000    0.295507                     |
 +----------------------------------------------------------------------------+
  
 Time to get kmesh              0.665 (sec)
 *============================================================================*
 |                              MEMORY ESTIMATE                               |
 |         Maximum RAM allocated during each phase of the calculation         |
 *============================================================================*
 |                        Disentanglement           60.28 Mb                  |
 |                            Wannierise:           64.69 Mb                  |
 |                          plot_wannier:           64.69 Mb                  |
 *----------------------------------------------------------------------------*
  
 Reading restart information from file wannier90.chk :
 written on 13Jul2025 at 04:23:40 ... done

 Restarting Wannier90 from plotting routines ...

 *---------------------------------------------------------------------------*
 |                               PLOTTING                                    |
 *---------------------------------------------------------------------------*

 !!!! Kpoint grid does not include Gamma.  Interpolation may be incorrect. !!!!

 Calculating interpolated band-structure

 Time to calculate interpolated band structure       6.357 (sec)

 Time for plotting              7.606 (sec)
 Total Execution Time           8.395 (sec)

 *===========================================================================*
 |                             TIMING INFORMATION                            |
 *===========================================================================*
 |    Tag                                                Ncalls      Time (s)|
 |---------------------------------------------------------------------------|
 |kmesh: get                                        :         1         0.665|
 |plot: main                                        :         1         7.606|
 *---------------------------------------------------------------------------*

 All done: wannier90 exiting
