       #
       # Generated by the Wannier90 code http://www.wannier.org
       # On 26Jul2025 at 02:43:56 
       #
CRYSTAL
PRIMVEC
   0.0000000   3.2446001   3.2446001
   3.2446001   0.0000000   3.2446001
   3.2446001   3.2446001   0.0000000
CONVVEC
   0.0000000   3.2446001   3.2446001
   3.2446001   0.0000000   3.2446001
   3.2446001   3.2446001   0.0000000
PRIMCOORD
     2  1
Sn      0.0000000   0.0000000   0.0000000
Sn      1.6223000   1.6223000   1.6223000


BEGIN_BLOCK_DATAGRID_3D
3D_field
BEGIN_DATAGRID_3D_UNKNOWN
    60    60    60
   -6.705507   -6.705507   -6.705507
   0.0000000   6.3810469   6.3810469
   6.3810469   0.0000000   6.3810469
   6.3810469   6.3810469   0.0000000
 -0.11180E-01 -0.11109E-01 -0.11210E-01 -0.11280E-01 -0.10808E-01 -0.94369E-02
 -0.72195E-02 -0.44827E-02 -0.15312E-02  0.14645E-02  0.43793E-02  0.70569E-02
  0.93537E-02  0.11207E-01  0.12625E-01  0.13643E-01  0.14296E-01  0.14626E-01
  0.14676E-01  0.14489E-01  0.14126E-01  0.13657E-01  0.13103E-01  0.12409E-01
  0.11484E-01  0.10282E-01  0.88265E-02  0.72075E-02  0.56207E-02  0.44108E-02
  0.39356E-02  0.42434E-02  0.48667E-02  0.50511E-02  0.43085E-02  0.27815E-02
  0.10629E-02 -0.32104E-03 -0.12440E-02 -0.18893E-02 -0.24602E-02 -0.30199E-02
 -0.35282E-02 -0.39250E-02 -0.41555E-02 -0.41626E-02 -0.38913E-02 -0.33005E-02
 -0.23683E-02 -0.10964E-02  0.48548E-03  0.23186E-02  0.42992E-02  0.62398E-02
  0.78649E-02  0.89011E-02  0.92188E-02  0.88780E-02  0.80089E-02  0.66399E-02
 -0.89193E-02 -0.87370E-02 -0.87057E-02 -0.84183E-02 -0.74259E-02 -0.56303E-02
 -0.32850E-02 -0.69732E-03  0.19769E-02  0.46689E-02  0.72560E-02  0.95622E-02
  0.11462E-01  0.12928E-01  0.13980E-01  0.14640E-01  0.14933E-01  0.14890E-01
  0.14561E-01  0.14014E-01  0.13336E-01  0.12596E-01  0.11802E-01  0.10920E-01
  0.99472E-02  0.89343E-02  0.79290E-02  0.69503E-02  0.60733E-02  0.54959E-02
  0.54058E-02  0.57156E-02  0.59877E-02  0.57295E-02  0.48103E-02  0.35660E-02
  0.24799E-02  0.17819E-02  0.13486E-02  0.91722E-03  0.32878E-03 -0.41016E-03
 -0.12032E-02 -0.19402E-02 -0.25225E-02 -0.28664E-02 -0.29045E-02 -0.25851E-02
 -0.18781E-02 -0.78521E-03  0.65962E-03  0.23934E-02  0.43010E-02  0.61803E-02
  0.77703E-02  0.88674E-02  0.94260E-02  0.95082E-02  0.91106E-02  0.80697E-02
 -0.56531E-02 -0.58247E-02 -0.59807E-02 -0.55710E-02 -0.43171E-02 -0.23824E-02
 -0.11580E-03  0.22655E-02  0.47084E-02  0.71492E-02  0.94259E-02  0.11368E-01
  0.12894E-01  0.14003E-01  0.14703E-01  0.14994E-01  0.14897E-01  0.14458E-01
  0.13750E-01  0.12867E-01  0.11904E-01  0.10925E-01  0.99547E-02  0.90340E-02
  0.82529E-02  0.76847E-02  0.72923E-02  0.69569E-02  0.66305E-02  0.64174E-02
  0.64392E-02  0.66228E-02  0.66905E-02  0.64086E-02  0.58286E-02  0.52385E-02
  0.48757E-02  0.47107E-02  0.45022E-02  0.40165E-02  0.31819E-02  0.20834E-02
  0.87590E-03 -0.28622E-03 -0.12779E-02 -0.20033E-02 -0.23852E-02 -0.23617E-02
 -0.18994E-02 -0.10023E-02  0.29791E-03  0.19442E-02  0.38219E-02  0.57377E-02
  0.74777E-02  0.89154E-02  0.10030E-01  0.10771E-01  0.10901E-01  0.10062E-01
 -0.26877E-02 -0.35396E-02 -0.39960E-02 -0.35317E-02 -0.21342E-02 -0.17190E-03
  0.20046E-02  0.42621E-02  0.65625E-02  0.87914E-02  0.10771E-01  0.12377E-01
  0.13573E-01  0.14350E-01  0.14690E-01  0.14592E-01  0.14095E-01  0.13274E-01
  0.12223E-01  0.11045E-01  0.98382E-02  0.86793E-02  0.76499E-02  0.68683E-02
  0.64482E-02  0.63858E-02  0.65099E-02  0.66006E-02  0.65803E-02  0.65655E-02
  0.67100E-02  0.70163E-02  0.73346E-02  0.75395E-02  0.76620E-02  0.78178E-02
  0.80215E-02  0.81060E-02  0.78285E-02  0.70428E-02  0.57789E-02  0.41997E-02
  0.25080E-02  0.88156E-03 -0.54642E-03 -0.16739E-02 -0.24150E-02 -0.27033E-02
 -0.25054E-02 -0.18186E-02 -0.65693E-03  0.93792E-03  0.28603E-02  0.49425E-02
  0.70275E-02  0.90282E-02  0.10852E-01  0.12231E-01  0.12680E-01  0.11751E-01
 -0.11100E-02 -0.25588E-02 -0.31266E-02 -0.25125E-02 -0.98300E-03  0.99762E-03
  0.31355E-02  0.53353E-02  0.75172E-02  0.95309E-02  0.11231E-01  0.12545E-01
  0.13445E-01  0.13893E-01  0.13863E-01  0.13379E-01  0.12511E-01  0.11353E-01
  0.10006E-01  0.85837E-02  0.71989E-02  0.59673E-02  0.50242E-02  0.45082E-02
  0.44730E-02  0.47991E-02  0.52311E-02  0.55559E-02  0.57684E-02  0.60561E-02
  0.66103E-02  0.74529E-02  0.84401E-02  0.94082E-02  0.10277E-01  0.11006E-01
  0.11484E-01  0.11510E-01  0.10906E-01  0.96375E-02  0.78348E-02  0.57226E-02
  0.35280E-02  0.14330E-02 -0.42722E-03 -0.19484E-02 -0.30465E-02 -0.36587E-02
 -0.37431E-02 -0.32701E-02 -0.22239E-02 -0.63045E-03  0.14153E-02  0.37746E-02
  0.63229E-02  0.89373E-02  0.11361E-01  0.13087E-01  0.13487E-01  0.12216E-01
 -0.11333E-02 -0.27558E-02 -0.31381E-02 -0.22958E-02 -0.67056E-03  0.13009E-02
  0.33986E-02  0.55233E-02  0.75545E-02  0.93491E-02  0.10808E-01  0.11874E-01
  0.12492E-01  0.12609E-01  0.12223E-01  0.11390E-01  0.10202E-01  0.87583E-02
  0.71770E-02  0.55916E-02  0.41427E-02  0.29756E-02  0.22368E-02  0.20228E-02
  0.22981E-02  0.28719E-02  0.35030E-02  0.40722E-02  0.46758E-02  0.55400E-02
  0.68218E-02  0.84685E-02  0.10255E-01  0.11933E-01  0.13336E-01  0.14334E-01
  0.14771E-01  0.14473E-01  0.13358E-01  0.11506E-01  0.91296E-02  0.64872E-02
  0.38121E-02  0.12872E-02 -0.95787E-03 -0.28369E-02 -0.42862E-02 -0.52407E-02
 -0.56237E-02 -0.53577E-02 -0.43957E-02 -0.27561E-02 -0.52906E-03  0.21559E-02
  0.51501E-02  0.82175E-02  0.10912E-01  0.12580E-01  0.12642E-01  0.11015E-01
 -0.22286E-02 -0.36066E-02 -0.36689E-02 -0.26684E-02 -0.10575E-02  0.83233E-03
  0.28359E-02  0.48353E-02  0.66972E-02  0.83043E-02  0.95710E-02  0.10415E-01
  0.10756E-01  0.10557E-01  0.98524E-02  0.87239E-02  0.72713E-02  0.56148E-02
  0.38999E-02  0.22822E-02  0.91176E-03 -0.67906E-04 -0.53841E-03 -0.46334E-03
  0.65236E-04  0.86093E-03  0.17624E-02  0.27541E-02  0.39838E-02  0.56385E-02
  0.77673E-02  0.10198E-01  0.12620E-01  0.14743E-01  0.16360E-01  0.17310E-01
  0.17434E-01  0.16621E-01  0.14897E-01  0.12440E-01  0.95133E-02  0.63913E-02
  0.33136E-02  0.45412E-03 -0.20965E-02 -0.43044E-02 -0.61253E-02 -0.74557E-02
 -0.81467E-02 -0.80637E-02 -0.71420E-02 -0.54086E-02 -0.29712E-02  0.61003E-05
  0.32897E-02  0.65054E-02  0.90881E-02  0.10406E-01  0.10094E-01  0.83611E-02
 -0.37976E-02 -0.47906E-02 -0.46308E-02 -0.36348E-02 -0.21498E-02 -0.40100E-03
  0.14692E-02  0.33293E-02  0.50511E-02  0.65219E-02  0.76291E-02  0.82577E-02
  0.83317E-02  0.78516E-02  0.68821E-02  0.55200E-02  0.38882E-02  0.21409E-02
  0.44348E-03 -0.10543E-02 -0.22193E-02 -0.29289E-02 -0.30988E-02 -0.27316E-02
 -0.19267E-02 -0.82027E-03  0.50912E-03  0.21012E-02  0.40823E-02  0.65400E-02
  0.93917E-02  0.12366E-01  0.15116E-01  0.17354E-01  0.18873E-01  0.19506E-01
  0.19121E-01  0.17691E-01  0.15340E-01  0.12313E-01  0.89064E-02  0.54139E-02
  0.20711E-02 -0.10029E-02 -0.38086E-02 -0.63706E-02 -0.86152E-02 -0.10341E-01
 -0.11305E-01 -0.11331E-01 -0.10369E-01 -0.84849E-02 -0.58437E-02 -0.26877E-02
  0.64784E-03  0.37033E-02  0.59240E-02  0.68407E-02  0.63465E-02  0.48362E-02
 -0.56468E-02 -0.63689E-02 -0.61643E-02 -0.52856E-02 -0.39616E-02 -0.23569E-02
 -0.60998E-03  0.11451E-02  0.27774E-02  0.41472E-02  0.51030E-02  0.55218E-02
  0.53589E-02  0.46517E-02  0.34886E-02  0.19928E-02  0.32415E-03 -0.13441E-02
 -0.28631E-02 -0.41152E-02 -0.49893E-02 -0.53780E-02 -0.52186E-02 -0.45278E-02
 -0.33837E-02 -0.18675E-02 -0.81618E-05  0.22326E-02  0.49110E-02  0.79976E-02
  0.11300E-01  0.14497E-01  0.17254E-01  0.19314E-01  0.20482E-01  0.20606E-01
  0.19605E-01  0.17532E-01  0.14587E-01  0.11062E-01  0.72916E-02  0.35821E-02
  0.11504E-03 -0.31112E-02 -0.62036E-02 -0.91854E-02 -0.11870E-01 -0.13920E-01
 -0.15018E-01 -0.14999E-01 -0.13873E-01 -0.11789E-01 -0.89977E-02 -0.58238E-02
 -0.26583E-02  0.49176E-04  0.18578E-02  0.25022E-02  0.20644E-02  0.97575E-03
 -0.79002E-02 -0.85123E-02 -0.83567E-02 -0.76012E-02 -0.64036E-02 -0.49039E-02
 -0.32354E-02 -0.15334E-02  0.48600E-04  0.13311E-02  0.21427E-02  0.23811E-02
  0.20404E-02  0.11898E-02 -0.51716E-04 -0.15239E-02 -0.30483E-02 -0.44744E-02
 -0.56989E-02 -0.66329E-02 -0.71703E-02 -0.72107E-02 -0.67078E-02 -0.56788E-02
 -0.41710E-02 -0.22246E-02  0.14376E-03  0.29342E-02  0.61165E-02  0.95591E-02
  0.13001E-01  0.16117E-01  0.18616E-01  0.20278E-01  0.20929E-01  0.20443E-01
  0.18791E-01  0.16091E-01  0.12601E-01  0.86706E-02  0.46694E-02  0.87137E-03
 -0.26649E-02 -0.60840E-02 -0.95342E-02 -0.12935E-01 -0.15933E-01 -0.18079E-01
 -0.19057E-01 -0.18779E-01 -0.17363E-01 -0.15065E-01 -0.12213E-01 -0.91670E-02
 -0.63002E-02 -0.39809E-02 -0.25073E-02 -0.19846E-02 -0.22451E-02 -0.29203E-02
 -0.10649E-01 -0.11222E-01 -0.11108E-01 -0.10426E-01 -0.93001E-02 -0.78500E-02
 -0.62013E-02 -0.45026E-02 -0.29421E-02 -0.17267E-02 -0.10206E-02 -0.89225E-03
 -0.13113E-02 -0.21753E-02 -0.33304E-02 -0.45988E-02 -0.58269E-02 -0.69176E-02
 -0.78048E-02 -0.84016E-02 -0.85969E-02 -0.83041E-02 -0.74918E-02 -0.61659E-02
 -0.43413E-02 -0.20380E-02  0.71141E-03  0.38524E-02  0.72763E-02  0.10780E-01
  0.14079E-01  0.16878E-01  0.18938E-01  0.20075E-01  0.20128E-01  0.18993E-01
  0.16684E-01  0.13376E-01  0.93936E-02  0.51437E-02  0.10009E-02 -0.28548E-02
 -0.65124E-02 -0.10195E-01 -0.13980E-01 -0.17615E-01 -0.20608E-01 -0.22493E-01
 -0.23043E-01 -0.22304E-01 -0.20521E-01 -0.18036E-01 -0.15208E-01 -0.12371E-01
 -0.98326E-02 -0.78640E-02 -0.66454E-02 -0.61839E-02 -0.62983E-02 -0.67123E-02
 -0.13794E-01 -0.14324E-01 -0.14214E-01 -0.13554E-01 -0.12437E-01 -0.10967E-01
 -0.92686E-02 -0.75182E-02 -0.59329E-02 -0.47246E-02 -0.40346E-02 -0.38980E-02
 -0.42522E-02 -0.49646E-02 -0.58675E-02 -0.68071E-02 -0.76840E-02 -0.84435E-02
 -0.90214E-02 -0.93157E-02 -0.92208E-02 -0.86715E-02 -0.76398E-02 -0.61080E-02
 -0.40684E-02 -0.15462E-02  0.13921E-02  0.46404E-02  0.80356E-02  0.11343E-01
  0.14288E-01  0.16625E-01  0.18156E-01  0.18710E-01  0.18129E-01  0.16323E-01
  0.13350E-01  0.94491E-02  0.50170E-02  0.49941E-03 -0.37751E-02 -0.77434E-02
 -0.11586E-01 -0.15492E-01 -0.19388E-01 -0.22877E-01 -0.25433E-01 -0.26680E-01
 -0.26544E-01 -0.25220E-01 -0.23055E-01 -0.20426E-01 -0.17671E-01 -0.15066E-01
 -0.12844E-01 -0.11196E-01 -0.10214E-01 -0.98509E-02 -0.99456E-02 -0.10306E-01
 -0.17143E-01 -0.17610E-01 -0.17463E-01 -0.16761E-01 -0.15569E-01 -0.13984E-01
 -0.12150E-01 -0.10267E-01 -0.85653E-02 -0.72493E-02 -0.64378E-02 -0.61403E-02
 -0.62717E-02 -0.66918E-02 -0.72565E-02 -0.78621E-02 -0.84501E-02 -0.89665E-02
 -0.93232E-02 -0.94102E-02 -0.91398E-02 -0.84590E-02 -0.73258E-02 -0.57010E-02
 -0.35783E-02 -0.10091E-02  0.19061E-02  0.50289E-02  0.81732E-02  0.11105E-01
  0.13580E-01  0.15392E-01  0.16358E-01  0.16298E-01  0.15049E-01  0.12545E-01
  0.89004E-02  0.44311E-02 -0.40946E-03 -0.51763E-02 -0.96109E-02 -0.13727E-01
 -0.17698E-01 -0.21597E-01 -0.25211E-01 -0.28095E-01 -0.29805E-01 -0.30131E-01
 -0.29168E-01 -0.27232E-01 -0.24719E-01 -0.21994E-01 -0.19341E-01 -0.16977E-01
 -0.15077E-01 -0.13758E-01 -0.13048E-01 -0.12877E-01 -0.13118E-01 -0.13640E-01
 -0.20529E-01 -0.20897E-01 -0.20644E-01 -0.19797E-01 -0.18412E-01 -0.16595E-01
 -0.14508E-01 -0.12367E-01 -0.10408E-01 -0.88314E-02 -0.77445E-02 -0.71442E-02
 -0.69451E-02 -0.70321E-02 -0.73055E-02 -0.76960E-02 -0.81422E-02 -0.85580E-02
 -0.88316E-02 -0.88582E-02 -0.85626E-02 -0.78858E-02 -0.67681E-02 -0.51702E-02
 -0.31097E-02 -0.66660E-03  0.20411E-02  0.48665E-02  0.76229E-02  0.10091E-01
  0.12054E-01  0.13316E-01  0.13687E-01  0.12971E-01  0.11016E-01  0.78022E-02
  0.35156E-02 -0.14615E-02 -0.66483E-02 -0.11629E-01 -0.16199E-01 -0.20377E-01
 -0.24252E-01 -0.27775E-01 -0.30670E-01 -0.32550E-01 -0.33138E-01 -0.32412E-01
 -0.30613E-01 -0.28127E-01 -0.25347E-01 -0.22588E-01 -0.20081E-01 -0.17993E-01
 -0.16443E-01 -0.15490E-01 -0.15120E-01 -0.15265E-01 -0.15827E-01 -0.16703E-01
 -0.23804E-01 -0.23994E-01 -0.23515E-01 -0.22385E-01 -0.20664E-01 -0.18468E-01
 -0.15973E-01 -0.13411E-01 -0.11036E-01 -0.90573E-02 -0.75820E-02 -0.66126E-02
 -0.60898E-02 -0.59379E-02 -0.60845E-02 -0.64518E-02 -0.69397E-02 -0.74252E-02
 -0.77844E-02 -0.79158E-02 -0.77401E-02 -0.71850E-02 -0.61903E-02 -0.47387E-02
 -0.28758E-02 -0.69499E-03  0.16861E-02  0.41238E-02  0.64357E-02  0.84117E-02
  0.98420E-02  0.10526E-01  0.10261E-01  0.88548E-02  0.61900E-02  0.23134E-02
 -0.25195E-02 -0.78832E-02 -0.13299E-01 -0.18386E-01 -0.22952E-01 -0.26966E-01
 -0.30416E-01 -0.33176E-01 -0.34994E-01 -0.35624E-01 -0.34984E-01 -0.33231E-01
 -0.30706E-01 -0.27806E-01 -0.24878E-01 -0.22178E-01 -0.19885E-01 -0.18125E-01
 -0.16971E-01 -0.16438E-01 -0.16498E-01 -0.17087E-01 -0.18117E-01 -0.19480E-01
 -0.26801E-01 -0.26682E-01 -0.25825E-01 -0.24248E-01 -0.22020E-01 -0.19265E-01
 -0.16185E-01 -0.13048E-01 -0.10142E-01 -0.76901E-02 -0.58088E-02 -0.45255E-02
 -0.38157E-02 -0.36245E-02 -0.38650E-02 -0.44161E-02 -0.51326E-02 -0.58647E-02
 -0.64772E-02 -0.68579E-02 -0.69150E-02 -0.65753E-02 -0.57982E-02 -0.45940E-02
 -0.30241E-02 -0.11804E-02  0.82463E-03  0.28463E-02  0.46980E-02  0.61670E-02
  0.70417E-02  0.71185E-02  0.61998E-02  0.41208E-02  0.81913E-03 -0.35910E-02
 -0.88008E-02 -0.14367E-01 -0.19829E-01 -0.24827E-01 -0.29149E-01 -0.32698E-01
 -0.35386E-01 -0.37074E-01 -0.37605E-01 -0.36911E-01 -0.35106E-01 -0.32483E-01
 -0.29423E-01 -0.26284E-01 -0.23345E-01 -0.20804E-01 -0.18803E-01 -0.17432E-01
 -0.16727E-01 -0.16683E-01 -0.17261E-01 -0.18395E-01 -0.19980E-01 -0.21898E-01
 -0.29327E-01 -0.28736E-01 -0.27322E-01 -0.25111E-01 -0.22179E-01 -0.18683E-01
 -0.14876E-01 -0.11081E-01 -0.76175E-02 -0.47235E-02 -0.25371E-02 -0.11155E-02
 -0.44949E-03 -0.46303E-03 -0.10200E-02 -0.19490E-02 -0.30699E-02 -0.42086E-02
 -0.52077E-02 -0.59370E-02 -0.63020E-02 -0.62464E-02 -0.57560E-02 -0.48601E-02
 -0.36236E-02 -0.21352E-02 -0.51104E-03  0.10918E-02  0.24749E-02  0.34236E-02
  0.37338E-02  0.32159E-02  0.16948E-02 -0.95498E-03 -0.47396E-02 -0.94880E-02
 -0.14857E-01 -0.20404E-01 -0.25686E-01 -0.30346E-01 -0.34145E-01 -0.36927E-01
 -0.38579E-01 -0.39012E-01 -0.38206E-01 -0.36278E-01 -0.33500E-01 -0.30236E-01
 -0.26849E-01 -0.23633E-01 -0.20802E-01 -0.18514E-01 -0.16878E-01 -0.15956E-01
 -0.15760E-01 -0.16267E-01 -0.17427E-01 -0.19156E-01 -0.21336E-01 -0.23836E-01
 -0.31180E-01 -0.29934E-01 -0.27767E-01 -0.24717E-01 -0.20899E-01 -0.16530E-01
 -0.11937E-01 -0.74943E-02 -0.35441E-02 -0.34513E-03  0.19377E-02  0.32361E-02
  0.35876E-02  0.31267E-02  0.20483E-02  0.56525E-03 -0.11100E-02 -0.27709E-02
 -0.42337E-02 -0.53619E-02 -0.60755E-02 -0.63429E-02 -0.61696E-02 -0.55940E-02
 -0.46835E-02 -0.35338E-02 -0.22773E-02 -0.10892E-02 -0.17290E-03  0.27150E-03
  0.64105E-04 -0.96198E-03 -0.29574E-02 -0.60105E-02 -0.10078E-01 -0.14944E-01
 -0.20248E-01 -0.25551E-01 -0.30423E-01 -0.34497E-01 -0.37506E-01 -0.39277E-01
 -0.39722E-01 -0.38849E-01 -0.36795E-01 -0.33833E-01 -0.30325E-01 -0.26640E-01
 -0.23092E-01 -0.19917E-01 -0.17289E-01 -0.15333E-01 -0.14131E-01 -0.13715E-01
 -0.14074E-01 -0.15172E-01 -0.16942E-01 -0.19288E-01 -0.22080E-01 -0.25167E-01
 -0.32165E-01 -0.30067E-01 -0.26946E-01 -0.22879E-01 -0.18049E-01 -0.12762E-01
 -0.74148E-02 -0.24200E-02  0.18547E-02  0.51242E-02  0.72144E-02  0.80909E-02
  0.78605E-02  0.67299E-02  0.49457E-02  0.27616E-02  0.43140E-03 -0.18042E-02
 -0.37516E-02 -0.52892E-02 -0.63613E-02 -0.69542E-02 -0.70839E-02 -0.67969E-02
 -0.61732E-02 -0.53287E-02 -0.44175E-02 -0.36231E-02 -0.31327E-02 -0.31149E-02
 -0.37239E-02 -0.51124E-02 -0.74125E-02 -0.10676E-01 -0.14814E-01 -0.19585E-01
 -0.24620E-01 -0.29486E-01 -0.33748E-01 -0.37029E-01 -0.39048E-01 -0.39651E-01
 -0.38823E-01 -0.36702E-01 -0.33569E-01 -0.29794E-01 -0.25763E-01 -0.21816E-01
 -0.18221E-01 -0.15180E-01 -0.12836E-01 -0.11282E-01 -0.10565E-01 -0.10690E-01
 -0.11631E-01 -0.13337E-01 -0.15732E-01 -0.18706E-01 -0.22107E-01 -0.25745E-01
 -0.32099E-01 -0.28960E-01 -0.24714E-01 -0.19506E-01 -0.13621E-01 -0.74581E-02
 -0.14721E-02  0.38876E-02  0.82256E-02  0.11250E-01  0.12826E-01  0.12995E-01
  0.11948E-01  0.99547E-02  0.73145E-02  0.43348E-02  0.13154E-02 -0.14878E-02
 -0.38993E-02 -0.58265E-02 -0.72316E-02 -0.81089E-02 -0.84841E-02 -0.84223E-02
 -0.80293E-02 -0.74469E-02 -0.68403E-02 -0.63777E-02 -0.62119E-02 -0.64835E-02
 -0.73378E-02 -0.89216E-02 -0.11341E-01 -0.14605E-01 -0.18596E-01 -0.23070E-01
 -0.27668E-01 -0.31959E-01 -0.35487E-01 -0.37853E-01 -0.38776E-01 -0.38151E-01
 -0.36070E-01 -0.32811E-01 -0.28765E-01 -0.24348E-01 -0.19934E-01 -0.15831E-01
 -0.12282E-01 -0.94598E-02 -0.74692E-02 -0.63615E-02 -0.61535E-02 -0.68352E-02
 -0.83690E-02 -0.10691E-01 -0.13711E-01 -0.17299E-01 -0.21270E-01 -0.25382E-01
 -0.30837E-01 -0.26489E-01 -0.20986E-01 -0.14589E-01 -0.76996E-02 -0.80458E-03
  0.55908E-02  0.11010E-01  0.15060E-01  0.17496E-01  0.18265E-01  0.17496E-01
  0.15447E-01  0.12444E-01  0.88563E-02  0.50569E-02  0.13765E-02 -0.19454E-02
 -0.47703E-02 -0.70303E-02 -0.86959E-02 -0.97698E-02 -0.10300E-01 -0.10384E-01
 -0.10159E-01 -0.97815E-02 -0.94027E-02 -0.91561E-02 -0.91650E-02 -0.95626E-02
 -0.10494E-01 -0.12081E-01 -0.14385E-01 -0.17386E-01 -0.20984E-01 -0.24980E-01
 -0.29048E-01 -0.32736E-01 -0.35535E-01 -0.36987E-01 -0.36807E-01 -0.34962E-01
 -0.31682E-01 -0.27383E-01 -0.22542E-01 -0.17595E-01 -0.12898E-01 -0.87365E-02
 -0.53240E-02 -0.27886E-02 -0.11865E-02 -0.53545E-03 -0.83777E-03 -0.20747E-02
 -0.41952E-02 -0.71186E-02 -0.10736E-01 -0.14894E-01 -0.19374E-01 -0.23888E-01
 -0.28251E-01 -0.22541E-01 -0.15716E-01 -0.81897E-02 -0.48519E-03  0.68443E-02
  0.13272E-01  0.18343E-01  0.21730E-01  0.23282E-01  0.23031E-01  0.21161E-01
  0.17979E-01  0.13886E-01  0.93377E-02  0.47657E-02  0.50034E-03 -0.32573E-02
 -0.64043E-02 -0.88883E-02 -0.10691E-01 -0.11839E-01 -0.12419E-01 -0.12568E-01
 -0.12441E-01 -0.12181E-01 -0.11908E-01 -0.11723E-01 -0.11739E-01 -0.12087E-01
 -0.12879E-01 -0.14175E-01 -0.16000E-01 -0.18379E-01 -0.21332E-01 -0.24775E-01
 -0.28404E-01 -0.31671E-01 -0.33912E-01 -0.34551E-01 -0.33301E-01 -0.30249E-01
 -0.25805E-01 -0.20532E-01 -0.14979E-01 -0.95934E-02 -0.47157E-02 -0.59490E-03
  0.26119E-02  0.48342E-02  0.60536E-02  0.62657E-02  0.54741E-02  0.37103E-02
  0.10430E-02 -0.24323E-02 -0.65957E-02 -0.11279E-01 -0.16233E-01 -0.21121E-01
 -0.24176E-01 -0.17011E-01 -0.89315E-02 -0.51677E-03  0.76195E-02  0.14913E-01
  0.20889E-01  0.25190E-01  0.27607E-01  0.28074E-01  0.26664E-01  0.23585E-01
  0.19207E-01  0.14029E-01  0.85929E-02  0.33576E-02 -0.13725E-02 -0.54368E-02
 -0.87590E-02 -0.11306E-01 -0.13088E-01 -0.14179E-01 -0.14710E-01 -0.14837E-01
 -0.14708E-01 -0.14439E-01 -0.14118E-01 -0.13832E-01 -0.13676E-01 -0.13728E-01
 -0.14007E-01 -0.14511E-01 -0.15329E-01 -0.16706E-01 -0.18929E-01 -0.22053E-01
 -0.25673E-01 -0.28948E-01 -0.30897E-01 -0.30794E-01 -0.28430E-01 -0.24121E-01
 -0.18511E-01 -0.12314E-01 -0.61362E-02 -0.42491E-03  0.45227E-02  0.85291E-02
  0.11510E-01  0.13439E-01  0.14312E-01  0.14130E-01  0.12908E-01  0.10691E-01
  0.75543E-02  0.35926E-02 -0.10747E-02 -0.62659E-02 -0.11695E-01 -0.16958E-01
 -0.18453E-01 -0.98960E-02 -0.84761E-03  0.79869E-02  0.15987E-01  0.22674E-01
  0.27721E-01  0.30925E-01  0.32175E-01  0.31433E-01  0.28767E-01  0.24426E-01
  0.18873E-01  0.12711E-01  0.65368E-02  0.80452E-03 -0.42171E-02 -0.84018E-02
 -0.11702E-01 -0.14123E-01 -0.15726E-01 -0.16636E-01 -0.17009E-01 -0.17000E-01
 -0.16735E-01 -0.16307E-01 -0.15786E-01 -0.15225E-01 -0.14639E-01 -0.13964E-01
 -0.13107E-01 -0.12119E-01 -0.11399E-01 -0.11664E-01 -0.13563E-01 -0.17135E-01
 -0.21537E-01 -0.25317E-01 -0.27072E-01 -0.26052E-01 -0.22344E-01 -0.16638E-01
 -0.98441E-02 -0.27955E-02  0.38810E-02  0.97872E-02  0.14717E-01  0.18589E-01
  0.21375E-01  0.23065E-01  0.23660E-01  0.23174E-01  0.21632E-01  0.19070E-01
  0.15550E-01  0.11154E-01  0.60026E-02  0.29561E-03 -0.56337E-02 -0.11308E-01
 -0.11067E-01 -0.14330E-02  0.80483E-02  0.16647E-01  0.23857E-01  0.29404E-01
  0.33173E-01  0.35091E-01  0.35067E-01  0.33026E-01  0.29046E-01  0.23461E-01
  0.16846E-01  0.98819E-02  0.31815E-02 -0.28259E-02 -0.79095E-02 -0.11982E-01
 -0.15041E-01 -0.17148E-01 -0.18421E-01 -0.19016E-01 -0.19097E-01 -0.18804E-01
 -0.18255E-01 -0.17529E-01 -0.16658E-01 -0.15586E-01 -0.14143E-01 -0.12085E-01
 -0.93112E-02 -0.62139E-02 -0.38525E-02 -0.36094E-02 -0.63396E-02 -0.11584E-01
 -0.17538E-01 -0.21907E-01 -0.23039E-01 -0.20541E-01 -0.15089E-01 -0.78332E-02
  0.11201E-03  0.78788E-02  0.14898E-01  0.20889E-01  0.25775E-01  0.29555E-01
  0.32221E-01  0.33764E-01  0.34203E-01  0.33560E-01  0.31837E-01  0.29039E-01
  0.25205E-01  0.20414E-01  0.14778E-01  0.85062E-02  0.19777E-02 -0.42539E-02
 -0.23064E-02  0.78235E-02  0.17015E-01  0.24652E-01  0.30484E-01  0.34528E-01
  0.36858E-01  0.37426E-01  0.36063E-01  0.32660E-01  0.27362E-01  0.20627E-01
  0.13133E-01  0.56021E-02 -0.13617E-02 -0.73691E-02 -0.12242E-01 -0.15948E-01
 -0.18547E-01 -0.20156E-01 -0.20937E-01 -0.21062E-01 -0.20691E-01 -0.19967E-01
 -0.19011E-01 -0.17871E-01 -0.16463E-01 -0.14529E-01 -0.11668E-01 -0.75410E-02
 -0.23207E-02  0.28682E-02  0.60291E-02  0.52416E-02  0.38769E-04 -0.78802E-02
 -0.15355E-01 -0.19460E-01 -0.18891E-01 -0.14123E-01 -0.65866E-02  0.22275E-02
  0.11168E-01  0.19460E-01  0.26679E-01  0.32715E-01  0.37614E-01  0.41408E-01
  0.44078E-01  0.45630E-01  0.46095E-01  0.45467E-01  0.43694E-01  0.40749E-01
  0.36668E-01  0.31496E-01  0.25299E-01  0.18279E-01  0.10892E-01  0.38164E-02
  0.71692E-02  0.17021E-01  0.25135E-01  0.31176E-01  0.35268E-01  0.37711E-01
  0.38628E-01  0.37849E-01  0.35097E-01  0.30295E-01  0.23726E-01  0.15990E-01
  0.78439E-02  0.31092E-04 -0.68795E-02 -0.12568E-01 -0.16936E-01 -0.20021E-01
 -0.21940E-01 -0.22860E-01 -0.22971E-01 -0.22455E-01 -0.21485E-01 -0.20224E-01
 -0.18778E-01 -0.17103E-01 -0.14934E-01 -0.11782E-01 -0.70914E-02 -0.66442E-03
  0.66936E-02  0.12830E-01  0.14913E-01  0.11144E-01  0.23683E-02 -0.79158E-02
 -0.15437E-01 -0.17490E-01 -0.13924E-01 -0.63624E-02  0.32217E-02  0.13327E-01
  0.22979E-01  0.31594E-01  0.38947E-01  0.45097E-01  0.50153E-01  0.54126E-01
  0.56991E-01  0.58769E-01  0.59470E-01  0.59017E-01  0.57308E-01  0.54312E-01
  0.50023E-01  0.44374E-01  0.37344E-01  0.29190E-01  0.20550E-01  0.12314E-01
  0.16353E-01  0.25085E-01  0.31453E-01  0.35561E-01  0.37916E-01  0.38927E-01
  0.38552E-01  0.36414E-01  0.32202E-01  0.25985E-01  0.18238E-01  0.96992E-02
  0.11922E-02 -0.65499E-02 -0.13039E-01 -0.18069E-01 -0.21640E-01 -0.23854E-01
 -0.24873E-01 -0.24905E-01 -0.24166E-01 -0.22861E-01 -0.21193E-01 -0.19338E-01
 -0.17348E-01 -0.15048E-01 -0.12001E-01 -0.75761E-02 -0.12480E-02  0.67653E-02
  0.14786E-01  0.19734E-01  0.18622E-01  0.10814E-01 -0.82363E-03 -0.11246E-01
 -0.16187E-01 -0.14326E-01 -0.71180E-02  0.29952E-02  0.14078E-01  0.24989E-01
  0.35046E-01  0.43869E-01  0.51423E-01  0.57865E-01  0.63290E-01  0.67666E-01
  0.70974E-01  0.73227E-01  0.74358E-01  0.74217E-01  0.72695E-01  0.69724E-01
  0.65137E-01  0.58677E-01  0.50318E-01  0.40538E-01  0.30285E-01  0.20690E-01
  0.24015E-01  0.30927E-01  0.35249E-01  0.37555E-01  0.38535E-01  0.38398E-01
  0.36781E-01  0.33174E-01  0.27408E-01  0.19807E-01  0.11055E-01  0.20131E-02
 -0.64615E-02 -0.13709E-01 -0.19388E-01 -0.23438E-01 -0.25940E-01 -0.27041E-01
 -0.26946E-01 -0.25904E-01 -0.24163E-01 -0.21967E-01 -0.19556E-01 -0.17099E-01
 -0.14580E-01 -0.11732E-01 -0.80519E-02 -0.29160E-02  0.39945E-02  0.11899E-01
  0.18358E-01  0.20000E-01  0.14746E-01  0.39539E-02 -0.76851E-02 -0.14873E-01
 -0.14865E-01 -0.84161E-02  0.18232E-02  0.13475E-01  0.25251E-01  0.36515E-01
  0.46806E-01  0.55891E-01  0.63848E-01  0.70840E-01  0.76889E-01  0.81936E-01
  0.85960E-01  0.88914E-01  0.90636E-01  0.90946E-01  0.89719E-01  0.86717E-01
  0.81487E-01  0.73656E-01  0.63408E-01  0.51615E-01  0.39535E-01  0.28470E-01
  0.29033E-01  0.33849E-01  0.36374E-01  0.37432E-01  0.37500E-01  0.36340E-01
  0.33328E-01  0.28068E-01  0.20718E-01  0.11895E-01  0.24671E-02 -0.66305E-02
 -0.14584E-01 -0.20895E-01 -0.25415E-01 -0.28203E-01 -0.29389E-01 -0.29155E-01
 -0.27754E-01 -0.25479E-01 -0.22624E-01 -0.19490E-01 -0.16354E-01 -0.13375E-01
 -0.10513E-01 -0.75178E-02 -0.39371E-02  0.75635E-03  0.66188E-02  0.12406E-01
  0.15419E-01  0.12952E-01  0.47091E-02 -0.60119E-02 -0.13969E-01 -0.15340E-01
 -0.98403E-02  0.10454E-03  0.11802E-01  0.23823E-01  0.35721E-01  0.47168E-01
  0.57764E-01  0.67339E-01  0.75999E-01  0.83831E-01  0.90779E-01  0.96775E-01
  0.10176E+00  0.10560E+00  0.10805E+00  0.10893E+00  0.10798E+00  0.10464E+00
  0.98187E-01  0.88389E-01  0.75865E-01  0.61863E-01  0.47806E-01  0.35092E-01
  0.30891E-01  0.33919E-01  0.35329E-01  0.35745E-01  0.35087E-01  0.32701E-01
  0.28010E-01  0.21008E-01  0.12245E-01  0.25792E-02 -0.70148E-02 -0.15611E-01
 -0.22544E-01 -0.27540E-01 -0.30617E-01 -0.31900E-01 -0.31542E-01 -0.29772E-01
 -0.26903E-01 -0.23279E-01 -0.19260E-01 -0.15218E-01 -0.11470E-01 -0.81955E-02
 -0.54114E-02 -0.29622E-02 -0.46064E-03  0.25459E-02  0.59167E-02  0.82366E-02
  0.72338E-02  0.16491E-02 -0.69054E-02 -0.14228E-01 -0.16212E-01 -0.11598E-01
 -0.22317E-02  0.90985E-02  0.20783E-01  0.32597E-01  0.44587E-01  0.56401E-01
  0.67582E-01  0.77987E-01  0.87674E-01  0.96618E-01  0.10472E+00  0.11191E+00
  0.11805E+00  0.12289E+00  0.12618E+00  0.12765E+00  0.12674E+00  0.12250E+00
  0.11422E+00  0.10206E+00  0.87105E-01  0.70777E-01  0.54522E-01  0.39917E-01
  0.30004E-01  0.31949E-01  0.32893E-01  0.32859E-01  0.31200E-01  0.27198E-01
  0.20678E-01  0.12122E-01  0.23841E-02 -0.75501E-02 -0.16692E-01 -0.24230E-01
 -0.29725E-01 -0.33114E-01 -0.34513E-01 -0.34062E-01 -0.31954E-01 -0.28485E-01
 -0.24033E-01 -0.19013E-01 -0.13874E-01 -0.90655E-02 -0.49509E-02 -0.17647E-02
  0.38654E-03  0.16114E-02  0.23222E-02  0.29436E-02  0.32095E-02  0.18543E-02
 -0.24249E-02 -0.92097E-02 -0.15651E-01 -0.18032E-01 -0.14444E-01 -0.59720E-02
  0.47279E-02  0.15786E-01  0.27005E-01  0.38873E-01  0.51376E-01  0.63941E-01
  0.76080E-01  0.87650E-01  0.98611E-01  0.10886E+00  0.11831E+00  0.12686E+00
  0.13428E+00  0.14025E+00  0.14443E+00  0.14634E+00  0.14499E+00  0.13923E+00
  0.12866E+00  0.11400E+00  0.96589E-01  0.77787E-01  0.59137E-01  0.42582E-01
  0.27491E-01  0.28949E-01  0.29563E-01  0.28706E-01  0.25535E-01  0.19685E-01
  0.11529E-01  0.19097E-02 -0.81773E-02 -0.17720E-01 -0.25801E-01 -0.31812E-01
 -0.35555E-01 -0.37107E-01 -0.36606E-01 -0.34215E-01 -0.30195E-01 -0.24926E-01
 -0.18863E-01 -0.12517E-01 -0.64366E-02 -0.11364E-02  0.29800E-02  0.56303E-02
  0.67024E-02  0.64020E-02  0.52292E-02  0.35087E-02  0.83880E-03 -0.36642E-02
 -0.10104E-01 -0.16698E-01 -0.20326E-01 -0.18664E-01 -0.11908E-01 -0.23000E-02
  0.80132E-02  0.18509E-01  0.29856E-01  0.42500E-01  0.56038E-01  0.69734E-01
  0.83125E-01  0.96026E-01  0.10831E+00  0.11988E+00  0.13075E+00  0.14079E+00
  0.14964E+00  0.15686E+00  0.16194E+00  0.16396E+00  0.16159E+00  0.15382E+00
  0.14077E+00  0.12362E+00  0.10372E+00  0.82375E-01  0.61426E-01  0.43242E-01
  0.24477E-01  0.25503E-01  0.25323E-01  0.23014E-01  0.17999E-01  0.10462E-01
  0.11813E-02 -0.88469E-02 -0.18601E-01 -0.27105E-01 -0.33600E-01 -0.37727E-01
 -0.39480E-01 -0.38989E-01 -0.36398E-01 -0.31924E-01 -0.25919E-01 -0.18853E-01
 -0.11284E-01 -0.38350E-02  0.28599E-02  0.82562E-02  0.11943E-01  0.13677E-01
  0.13501E-01  0.11812E-01  0.90908E-02  0.53601E-02  0.66047E-04 -0.71156E-02
 -0.15124E-01 -0.21364E-01 -0.23159E-01 -0.19651E-01 -0.12243E-01 -0.31166E-02
  0.66301E-02  0.17364E-01  0.29782E-01  0.43829E-01  0.58748E-01  0.73765E-01
  0.88418E-01  0.10245E+00  0.11576E+00  0.12849E+00  0.14080E+00  0.15252E+00
  0.16308E+00  0.17178E+00  0.17767E+00  0.17940E+00  0.17551E+00  0.16543E+00
  0.14989E+00  0.13029E+00  0.10794E+00  0.84271E-01  0.61538E-01  0.42297E-01
  0.21471E-01  0.21578E-01  0.19916E-01  0.15738E-01  0.89745E-02  0.24282E-03
 -0.95089E-02 -0.19264E-01 -0.28017E-01 -0.34901E-01 -0.39397E-01 -0.41387E-01
 -0.40969E-01 -0.38280E-01 -0.33492E-01 -0.26901E-01 -0.18956E-01 -0.10237E-01
 -0.14318E-02  0.67263E-02  0.13568E-01  0.18567E-01  0.21374E-01  0.21916E-01
  0.20500E-01  0.17639E-01  0.13541E-01  0.77890E-02 -0.17461E-03 -0.99362E-02
 -0.19471E-01 -0.25912E-01 -0.27304E-01 -0.23773E-01 -0.16980E-01 -0.84445E-02
  0.15419E-02  0.13498E-01  0.27631E-01  0.43351E-01  0.59691E-01  0.75827E-01
  0.91217E-01  0.10564E+00  0.11937E+00  0.13301E+00  0.14695E+00  0.16082E+00
  0.17362E+00  0.18407E+00  0.19065E+00  0.19168E+00  0.18593E+00  0.17344E+00
  0.15544E+00  0.13347E+00  0.10890E+00  0.83473E-01  0.59694E-01  0.39905E-01
  0.18296E-01  0.16850E-01  0.13272E-01  0.72636E-02 -0.79609E-03 -0.10088E-01
 -0.19642E-01 -0.28452E-01 -0.35586E-01 -0.40390E-01 -0.42620E-01 -0.42323E-01
 -0.39629E-01 -0.34679E-01 -0.27701E-01 -0.19080E-01 -0.93748E-02  0.68416E-03
  0.10263E-01  0.18567E-01  0.24957E-01  0.28981E-01  0.30438E-01  0.29519E-01
  0.26755E-01  0.22550E-01  0.16677E-01  0.84211E-02 -0.24405E-02 -0.14665E-01
 -0.25625E-01 -0.32628E-01 -0.34412E-01 -0.31528E-01 -0.25341E-01 -0.16707E-01
 -0.56095E-02  0.81503E-02  0.24187E-01  0.41485E-01  0.58852E-01  0.75279E-01
  0.90197E-01  0.10382E+00  0.11727E+00  0.13188E+00  0.14809E+00  0.16500E+00
  0.18072E+00  0.19313E+00  0.20016E+00  0.20010E+00  0.19227E+00  0.17736E+00
  0.15702E+00  0.13289E+00  0.10657E+00  0.80102E-01  0.55944E-01  0.35921E-01
  0.14500E-01  0.11144E-01  0.56879E-02 -0.17217E-02 -0.10456E-01 -0.19648E-01
 -0.28339E-01 -0.35578E-01 -0.40612E-01 -0.43069E-01 -0.42922E-01 -0.40290E-01
 -0.35301E-01 -0.28129E-01 -0.19073E-01 -0.86228E-02  0.25006E-02  0.13375E-01
  0.23059E-01  0.30786E-01  0.36016E-01  0.38426E-01  0.38029E-01  0.35263E-01
  0.30711E-01  0.24503E-01  0.16089E-01  0.48698E-02 -0.87395E-02 -0.22832E-01
 -0.34676E-01 -0.42063E-01 -0.44252E-01 -0.41812E-01 -0.35647E-01 -0.26188E-01
 -0.13459E-01  0.22741E-02  0.20075E-01  0.38469E-01  0.55861E-01  0.71026E-01
  0.83755E-01  0.95375E-01  0.10834E+00  0.12466E+00  0.14441E+00  0.16547E+00
  0.18465E+00  0.19889E+00  0.20587E+00  0.20429E+00  0.19422E+00  0.17699E+00
  0.15450E+00  0.12861E+00  0.10118E+00  0.74362E-01  0.50315E-01  0.30303E-01