       #
       # Generated by the Wannier90 code http://www.wannier.org
       # On 26Jul2025 at 02:43:56 
       #
CRYSTAL
PRIMVEC
   0.0000000   3.2446001   3.2446001
   3.2446001   0.0000000   3.2446001
   3.2446001   3.2446001   0.0000000
CONVVEC
   0.0000000   3.2446001   3.2446001
   3.2446001   0.0000000   3.2446001
   3.2446001   3.2446001   0.0000000
PRIMCOORD
     2  1
Sn      0.0000000   0.0000000   0.0000000
Sn      1.6223000   1.6223000   1.6223000


BEGIN_BLOCK_DATAGRID_3D
3D_field
BEGIN_DATAGRID_3D_UNKNOWN
    60    60    60
   -6.705507   -6.705507   -6.705507
   0.0000000   6.3810469   6.3810469
   6.3810469   0.0000000   6.3810469
   6.3810469   6.3810469   0.0000000
  0.89528E-02  0.90423E-02  0.86892E-02  0.80299E-02  0.71544E-02  0.60798E-02
  0.47897E-02  0.32916E-02  0.16383E-02 -0.85622E-04 -0.17818E-02 -0.33562E-02
 -0.47437E-02 -0.59276E-02 -0.69287E-02 -0.77754E-02 -0.84869E-02 -0.90795E-02
 -0.95751E-02 -0.99984E-02 -0.10370E-01 -0.10695E-01 -0.10942E-01 -0.11032E-01
 -0.10866E-01 -0.10347E-01 -0.94003E-02 -0.79828E-02 -0.61370E-02 -0.40455E-02
 -0.19842E-02 -0.15584E-03  0.14520E-02  0.30154E-02  0.46591E-02  0.62908E-02
  0.76505E-02  0.85037E-02  0.87829E-02  0.85759E-02  0.80377E-02  0.73364E-02
  0.66454E-02  0.61252E-02  0.58844E-02  0.59649E-02  0.63662E-02  0.70644E-02
  0.80041E-02  0.90965E-02  0.10241E-01  0.11333E-01  0.12223E-01  0.12698E-01
  0.12553E-01  0.11730E-01  0.10406E-01  0.89458E-02  0.77454E-02  0.70291E-02
  0.90423E-02  0.88020E-02  0.82353E-02  0.74491E-02  0.64654E-02  0.52524E-02
  0.37973E-02  0.21486E-02  0.40373E-03 -0.13248E-02 -0.29341E-02 -0.43495E-02
 -0.55405E-02 -0.65167E-02 -0.73027E-02 -0.79176E-02 -0.83754E-02 -0.86948E-02
 -0.88995E-02 -0.90133E-02 -0.90536E-02 -0.90206E-02 -0.88865E-02 -0.86027E-02
 -0.81184E-02 -0.73821E-02 -0.63311E-02 -0.49176E-02 -0.31792E-02 -0.12698E-02
  0.61997E-03  0.23961E-02  0.40933E-02  0.57547E-02  0.72867E-02  0.84578E-02
  0.90505E-02  0.90132E-02  0.84737E-02  0.76381E-02  0.66988E-02  0.58182E-02
  0.51410E-02  0.47799E-02  0.47930E-02  0.51906E-02  0.59586E-02  0.70550E-02
  0.83926E-02  0.98533E-02  0.11315E-01  0.12636E-01  0.13611E-01  0.13997E-01
  0.13642E-01  0.12621E-01  0.11232E-01  0.98747E-02  0.88560E-02  0.82492E-02
  0.86892E-02  0.82353E-02  0.75574E-02  0.66888E-02  0.55873E-02  0.42156E-02
  0.26077E-02  0.86669E-03 -0.87868E-03 -0.25116E-02 -0.39463E-02 -0.51403E-02
 -0.60933E-02 -0.68268E-02 -0.73602E-02 -0.77051E-02 -0.78732E-02 -0.78812E-02
 -0.77507E-02 -0.75075E-02 -0.71768E-02 -0.67697E-02 -0.62805E-02 -0.56996E-02
 -0.50142E-02 -0.41852E-02 -0.31372E-02 -0.18063E-02 -0.20824E-03  0.15565E-02
  0.33729E-02  0.51654E-02  0.68621E-02  0.83159E-02  0.93012E-02  0.96227E-02
  0.92469E-02  0.83302E-02  0.71275E-02  0.58748E-02  0.47436E-02  0.38626E-02
  0.33354E-02  0.32288E-02  0.35671E-02  0.43496E-02  0.55535E-02  0.71075E-02
  0.88815E-02  0.10720E-01  0.12466E-01  0.13931E-01  0.14873E-01  0.15080E-01
  0.14521E-01  0.13404E-01  0.12082E-01  0.10882E-01  0.99733E-02  0.93178E-02
  0.80299E-02  0.74491E-02  0.66888E-02  0.57111E-02  0.44578E-02  0.29372E-02
  0.12433E-02 -0.48724E-03 -0.21228E-02 -0.35624E-02 -0.47480E-02 -0.56686E-02
 -0.63444E-02 -0.67996E-02 -0.70474E-02 -0.70926E-02 -0.69391E-02 -0.65972E-02
 -0.60930E-02 -0.54696E-02 -0.47718E-02 -0.40284E-02 -0.32581E-02 -0.24796E-02
 -0.16921E-02 -0.84094E-03  0.17320E-03  0.14307E-02  0.29352E-02  0.46148E-02
  0.63512E-02  0.79854E-02  0.93044E-02  0.10069E-01  0.10103E-01  0.93926E-02
  0.81048E-02  0.65188E-02  0.49090E-02  0.34741E-02  0.23426E-02  0.16072E-02
  0.13351E-02  0.15608E-02  0.22951E-02  0.35348E-02  0.52385E-02  0.72883E-02
  0.94997E-02  0.11673E-01  0.13611E-01  0.15087E-01  0.15871E-01  0.15849E-01
  0.15126E-01  0.13991E-01  0.12756E-01  0.11626E-01  0.10666E-01  0.98295E-02
  0.71544E-02  0.64654E-02  0.55873E-02  0.44578E-02  0.30581E-02  0.14580E-02
 -0.21341E-03 -0.18177E-02 -0.32385E-02 -0.43980E-02 -0.52692E-02 -0.58700E-02
 -0.62347E-02 -0.63859E-02 -0.63270E-02 -0.60490E-02 -0.55432E-02 -0.48225E-02
 -0.39363E-02 -0.29567E-02 -0.19459E-02 -0.94483E-03  0.10777E-04  0.89123E-03
  0.17116E-02  0.25577E-02  0.35482E-02  0.47598E-02  0.61792E-02  0.76988E-02
  0.91267E-02  0.10209E-01  0.10692E-01  0.10411E-01  0.93707E-02  0.77400E-02
  0.57958E-02  0.38279E-02  0.20646E-02  0.65288E-03 -0.31668E-03 -0.78293E-03
 -0.70988E-03 -0.82168E-04  0.11100E-02  0.28599E-02  0.50914E-02  0.76243E-02
  0.10214E-01  0.12616E-01  0.14598E-01  0.15933E-01  0.16455E-01  0.16175E-01
  0.15302E-01  0.14128E-01  0.12877E-01  0.11660E-01  0.10524E-01  0.95013E-02
  0.60798E-02  0.52524E-02  0.42156E-02  0.29372E-02  0.14580E-02 -0.11441E-03
 -0.16484E-02 -0.30196E-02 -0.41307E-02 -0.49331E-02 -0.54374E-02 -0.56890E-02
 -0.57285E-02 -0.55673E-02 -0.51890E-02 -0.45655E-02 -0.36864E-02 -0.25899E-02
 -0.13625E-02 -0.98572E-04  0.11354E-02  0.22923E-02  0.33264E-02  0.42167E-02
  0.50123E-02  0.58281E-02  0.67745E-02  0.78842E-02  0.90816E-02  0.10187E-01
  0.10945E-01  0.11101E-01  0.10496E-01  0.91413E-02  0.72052E-02  0.49489E-02
  0.26554E-02  0.57242E-03 -0.11238E-02 -0.23303E-02 -0.29935E-02 -0.30884E-02
 -0.26063E-02 -0.15356E-02  0.14431E-03  0.24170E-02  0.51534E-02  0.80980E-02
  0.10944E-01  0.13410E-01  0.15258E-01  0.16299E-01  0.16468E-01  0.15890E-01
  0.14821E-01  0.13509E-01  0.12105E-01  0.10699E-01  0.93945E-02  0.83143E-02
  0.47897E-02  0.37973E-02  0.26077E-02  0.12433E-02 -0.21341E-03 -0.16484E-02
 -0.29420E-02 -0.39848E-02 -0.47049E-02 -0.50969E-02 -0.52132E-02 -0.51163E-02
 -0.48363E-02 -0.43595E-02 -0.36450E-02 -0.26581E-02 -0.14130E-02  0.80750E-05
  0.14876E-02  0.29285E-02  0.42688E-02  0.54565E-02  0.64476E-02  0.72509E-02
  0.79529E-02  0.86690E-02  0.94603E-02  0.10286E-01  0.11003E-01  0.11390E-01
  0.11211E-01  0.10309E-01  0.86872E-02  0.65011E-02  0.39934E-02  0.14299E-02
 -0.93638E-03 -0.28989E-02 -0.43273E-02 -0.51680E-02 -0.54163E-02 -0.50850E-02
 -0.41762E-02 -0.26581E-02 -0.49091E-03  0.22817E-02  0.54513E-02  0.86749E-02
  0.11592E-01  0.13911E-01  0.15425E-01  0.16025E-01  0.15757E-01  0.14822E-01
  0.13482E-01  0.11938E-01  0.10320E-01  0.87561E-02  0.74130E-02  0.64564E-02
  0.32916E-02  0.21486E-02  0.86669E-03 -0.48724E-03 -0.18177E-02 -0.30196E-02
 -0.39848E-02 -0.46234E-02 -0.49063E-02 -0.48794E-02 -0.46243E-02 -0.41969E-02
 -0.35985E-02 -0.27873E-02 -0.17134E-02 -0.36577E-03  0.11921E-02  0.28354E-02
  0.44380E-02  0.59162E-02  0.72153E-02  0.82854E-02  0.91057E-02  0.97243E-02
  0.10240E-01  0.10725E-01  0.11170E-01  0.11474E-01  0.11473E-01  0.10972E-01
  0.98237E-02  0.80064E-02  0.56466E-02  0.29635E-02  0.20362E-03 -0.23866E-02
 -0.45797E-02 -0.62098E-02 -0.72051E-02 -0.75750E-02 -0.73642E-02 -0.66058E-02
 -0.52821E-02 -0.33221E-02 -0.68097E-03  0.25311E-02  0.59970E-02  0.92897E-02
  0.12028E-01  0.13954E-01  0.14937E-01  0.14972E-01  0.14202E-01  0.12868E-01
  0.11215E-01  0.94257E-02  0.76497E-02  0.60614E-02  0.48517E-02  0.41641E-02
  0.16383E-02  0.40373E-03 -0.87868E-03 -0.21228E-02 -0.32385E-02 -0.41307E-02
 -0.47049E-02 -0.49063E-02 -0.47582E-02 -0.43449E-02 -0.37469E-02 -0.29904E-02
 -0.20467E-02 -0.86581E-03  0.57681E-03  0.22381E-02  0.39997E-02  0.57162E-02
  0.72775E-02  0.86232E-02  0.97132E-02  0.10520E-01  0.11061E-01  0.11405E-01
  0.11620E-01  0.11713E-01  0.11623E-01  0.11241E-01  0.10435E-01  0.90812E-02
  0.71365E-02  0.46831E-02  0.19068E-02 -0.96593E-03 -0.37033E-02 -0.60752E-02
 -0.78863E-02 -0.90287E-02 -0.95010E-02 -0.93693E-02 -0.87066E-02 -0.75359E-02
 -0.57984E-02 -0.33954E-02 -0.32431E-03  0.31911E-02  0.67190E-02  0.97891E-02
  0.12058E-01  0.13354E-01  0.13652E-01  0.13053E-01  0.11765E-01  0.10041E-01
  0.81088E-02  0.61528E-02  0.43535E-02  0.29014E-02  0.19616E-02  0.16234E-02
 -0.85622E-04 -0.13248E-02 -0.25116E-02 -0.35624E-02 -0.43980E-02 -0.49331E-02
 -0.50969E-02 -0.48794E-02 -0.43449E-02 -0.35830E-02 -0.26455E-02 -0.15268E-02
 -0.19163E-03  0.13798E-02  0.31520E-02  0.50163E-02  0.68187E-02  0.84247E-02
  0.97606E-02  0.10800E-01  0.11533E-01  0.11972E-01  0.12161E-01  0.12151E-01
  0.11953E-01  0.11527E-01  0.10810E-01  0.97254E-02  0.81951E-02  0.61691E-02
  0.36862E-02  0.89023E-03 -0.20164E-02 -0.48199E-02 -0.73058E-02 -0.92706E-02
 -0.10569E-01 -0.11158E-01 -0.11093E-01 -0.10471E-01 -0.93685E-02 -0.77808E-02
 -0.56185E-02 -0.28036E-02  0.56490E-03  0.41315E-02  0.73946E-02  0.99166E-02
  0.11454E-01  0.11955E-01  0.11502E-01  0.10278E-01  0.85239E-02  0.64846E-02
  0.43741E-02  0.23870E-02  0.71435E-03 -0.47411E-03 -0.10640E-02 -0.10171E-02
 -0.17818E-02 -0.29341E-02 -0.39463E-02 -0.47480E-02 -0.52692E-02 -0.54374E-02
 -0.52132E-02 -0.46243E-02 -0.37469E-02 -0.26455E-02 -0.13375E-02  0.19095E-03
  0.19412E-02  0.38661E-02  0.58550E-02  0.77496E-02  0.93969E-02  0.10704E-01
  0.11650E-01  0.12253E-01  0.12545E-01  0.12566E-01  0.12358E-01  0.11929E-01
  0.11248E-01  0.10271E-01  0.89644E-02  0.72914E-02  0.52168E-02  0.27509E-02
 -0.65360E-05 -0.28821E-02 -0.56813E-02 -0.82141E-02 -0.10293E-01 -0.11752E-01
 -0.12499E-01 -0.12537E-01 -0.11952E-01 -0.10854E-01 -0.93109E-02 -0.73009E-02
 -0.47449E-02 -0.16471E-02  0.17619E-02  0.50345E-02  0.76865E-02  0.93906E-02
  0.10039E-01  0.96966E-02  0.85328E-02  0.67771E-02  0.46733E-02  0.24460E-02
  0.29870E-03 -0.15739E-02 -0.29966E-02 -0.38412E-02 -0.40417E-02 -0.35939E-02
 -0.33562E-02 -0.43495E-02 -0.51403E-02 -0.56686E-02 -0.58700E-02 -0.56890E-02
 -0.51163E-02 -0.41969E-02 -0.29904E-02 -0.15268E-02  0.19095E-03  0.21453E-02
  0.42667E-02  0.64247E-02  0.84477E-02  0.10168E-01  0.11473E-01  0.12336E-01
  0.12793E-01  0.12905E-01  0.12734E-01  0.12325E-01  0.11695E-01  0.10820E-01
  0.96657E-02  0.82113E-02  0.64478E-02  0.43608E-02  0.19504E-02 -0.72016E-03
 -0.35119E-02 -0.62518E-02 -0.87733E-02 -0.10917E-01 -0.12524E-01 -0.13460E-01
 -0.13667E-01 -0.13177E-01 -0.12094E-01 -0.10539E-01 -0.85763E-02 -0.61948E-02
 -0.33770E-02 -0.24569E-03  0.28628E-02  0.54956E-02  0.72748E-02  0.80247E-02
  0.77684E-02  0.66599E-02  0.49208E-02  0.27918E-02  0.49699E-03 -0.17634E-02
 -0.37992E-02 -0.54316E-02 -0.65192E-02 -0.69769E-02 -0.67737E-02 -0.59291E-02
 -0.47437E-02 -0.55405E-02 -0.60933E-02 -0.63444E-02 -0.62347E-02 -0.57285E-02
 -0.48363E-02 -0.35985E-02 -0.20467E-02 -0.19163E-03  0.19412E-02  0.42667E-02
  0.66282E-02  0.88263E-02  0.10670E-01  0.12027E-01  0.12860E-01  0.13208E-01
  0.13155E-01  0.12789E-01  0.12174E-01  0.11348E-01  0.10306E-01  0.90250E-02
  0.74877E-02  0.56908E-02  0.36322E-02  0.13121E-02 -0.12311E-02 -0.38941E-02
 -0.65298E-02 -0.89929E-02 -0.11151E-01 -0.12867E-01 -0.13994E-01 -0.14419E-01
 -0.14109E-01 -0.13123E-01 -0.11588E-01 -0.96356E-02 -0.73402E-02 -0.47321E-02
 -0.18905E-02  0.95496E-03  0.34373E-02  0.51891E-02  0.59879E-02  0.58041E-02
  0.47590E-02  0.30590E-02  0.94040E-03 -0.13733E-02 -0.36887E-02 -0.58295E-02
 -0.76247E-02 -0.89252E-02 -0.96297E-02 -0.96888E-02 -0.90961E-02 -0.78928E-02
 -0.59276E-02 -0.65167E-02 -0.68268E-02 -0.67996E-02 -0.63859E-02 -0.55673E-02
 -0.43595E-02 -0.27873E-02 -0.86581E-03  0.13798E-02  0.38661E-02  0.64247E-02
  0.88263E-02  0.10844E-01  0.12318E-01  0.13190E-01  0.13498E-01  0.13336E-01
  0.12810E-01  0.12010E-01  0.10997E-01  0.97967E-02  0.84084E-02  0.68215E-02
  0.50299E-02  0.30312E-02  0.82577E-03 -0.15627E-02 -0.40619E-02 -0.65558E-02
 -0.89201E-02 -0.11044E-01 -0.12815E-01 -0.14097E-01 -0.14749E-01 -0.14681E-01
 -0.13891E-01 -0.12477E-01 -0.10586E-01 -0.83572E-02 -0.58914E-02 -0.32857E-02
 -0.71206E-03  0.15521E-02  0.31941E-02  0.39855E-02  0.38566E-02  0.28876E-02
  0.12570E-02 -0.81292E-03 -0.31022E-02 -0.54202E-02 -0.76037E-02 -0.94984E-02
 -0.10960E-01 -0.11879E-01 -0.12191E-01 -0.11873E-01 -0.10940E-01 -0.94508E-02
 -0.69287E-02 -0.73027E-02 -0.73602E-02 -0.70474E-02 -0.63270E-02 -0.51890E-02
 -0.36450E-02 -0.17134E-02  0.57681E-03  0.31520E-02  0.58550E-02  0.84477E-02
  0.10670E-01  0.12318E-01  0.13303E-01  0.13647E-01  0.13447E-01  0.12823E-01
  0.11884E-01  0.10715E-01  0.93715E-02  0.78818E-02  0.62521E-02  0.44772E-02
  0.25494E-02  0.46577E-03 -0.17589E-02 -0.40757E-02 -0.63995E-02 -0.86305E-02
 -0.10676E-01 -0.12444E-01 -0.13819E-01 -0.14664E-01 -0.14851E-01 -0.14327E-01
 -0.13138E-01 -0.11409E-01 -0.93037E-02 -0.69724E-02 -0.45546E-02 -0.22143E-02
 -0.17123E-03  0.13241E-02  0.20675E-02  0.19722E-02  0.10842E-02 -0.45031E-03
 -0.24334E-02 -0.46577E-02 -0.69364E-02 -0.91124E-02 -0.11047E-01 -0.12610E-01
 -0.13693E-01 -0.14224E-01 -0.14172E-01 -0.13533E-01 -0.12334E-01 -0.10643E-01
 -0.77754E-02 -0.79176E-02 -0.77051E-02 -0.70926E-02 -0.60490E-02 -0.45655E-02
 -0.26581E-02 -0.36577E-03  0.22381E-02  0.50163E-02  0.77496E-02  0.10168E-01
  0.12027E-01  0.13190E-01  0.13647E-01  0.13484E-01  0.12829E-01  0.11807E-01
  0.10525E-01  0.90648E-02  0.74825E-02  0.58060E-02  0.40399E-02  0.21750E-02
  0.20416E-03 -0.18643E-02 -0.39972E-02 -0.61364E-02 -0.82086E-02 -0.10139E-01
 -0.11851E-01 -0.13253E-01 -0.14225E-01 -0.14638E-01 -0.14398E-01 -0.13500E-01
 -0.12028E-01 -0.10132E-01 -0.79807E-02 -0.57454E-02 -0.36046E-02 -0.17557E-02
 -0.40406E-03  0.27818E-03  0.20339E-03 -0.60588E-03 -0.20315E-02 -0.39002E-02
 -0.60239E-02 -0.82271E-02 -0.10358E-01 -0.12285E-01 -0.13894E-01 -0.15088E-01
 -0.15795E-01 -0.15975E-01 -0.15614E-01 -0.14723E-01 -0.13335E-01 -0.11516E-01
 -0.84869E-02 -0.83754E-02 -0.78732E-02 -0.69391E-02 -0.55432E-02 -0.36864E-02
 -0.14130E-02  0.11921E-02  0.39997E-02  0.68187E-02  0.93969E-02  0.11473E-01
  0.12860E-01  0.13498E-01  0.13447E-01  0.12829E-01  0.11780E-01  0.10429E-01
  0.88808E-02  0.72169E-02  0.54880E-02  0.37143E-02  0.18932E-02  0.15599E-04
 -0.19149E-02 -0.38756E-02 -0.58290E-02 -0.77288E-02 -0.95207E-02 -0.11141E-01
 -0.12514E-01 -0.13546E-01 -0.14122E-01 -0.14140E-01 -0.13550E-01 -0.12390E-01
 -0.10774E-01 -0.88624E-02 -0.68341E-02 -0.48808E-02 -0.31980E-02 -0.19693E-02
 -0.13415E-02 -0.13961E-02 -0.21274E-02 -0.34409E-02 -0.51827E-02 -0.71817E-02
 -0.92777E-02 -0.11329E-01 -0.13212E-01 -0.14822E-01 -0.16076E-01 -0.16911E-01
 -0.17281E-01 -0.17166E-01 -0.16562E-01 -0.15487E-01 -0.13974E-01 -0.12087E-01
 -0.90795E-02 -0.86948E-02 -0.78812E-02 -0.65972E-02 -0.48225E-02 -0.25899E-02
  0.80750E-05  0.28354E-02  0.57162E-02  0.84247E-02  0.10704E-01  0.12336E-01
  0.13208E-01  0.13336E-01  0.12823E-01  0.11807E-01  0.10429E-01  0.88191E-02
  0.70834E-02  0.52953E-02  0.34947E-02  0.16921E-02 -0.11769E-03 -0.19349E-02
 -0.37447E-02 -0.55236E-02 -0.72488E-02 -0.88916E-02 -0.10404E-01 -0.11719E-01
 -0.12757E-01 -0.13432E-01 -0.13652E-01 -0.13346E-01 -0.12510E-01 -0.11211E-01
 -0.95817E-02 -0.77876E-02 -0.60195E-02 -0.44774E-02 -0.33431E-02 -0.27522E-02
 -0.27790E-02 -0.34273E-02 -0.46244E-02 -0.62339E-02 -0.80948E-02 -0.10059E-01
 -0.11999E-01 -0.13801E-01 -0.15371E-01 -0.16638E-01 -0.17550E-01 -0.18067E-01
 -0.18156E-01 -0.17805E-01 -0.17021E-01 -0.15825E-01 -0.14250E-01 -0.12352E-01
 -0.95751E-02 -0.88995E-02 -0.77507E-02 -0.60930E-02 -0.39363E-02 -0.13625E-02
  0.14876E-02  0.44380E-02  0.72775E-02  0.97606E-02  0.11650E-01  0.12793E-01
  0.13155E-01  0.12810E-01  0.11884E-01  0.10525E-01  0.88808E-02  0.70834E-02
  0.52302E-02  0.33823E-02  0.15689E-02 -0.20414E-03 -0.19381E-02 -0.36258E-02
 -0.52539E-02 -0.68153E-02 -0.83064E-02 -0.97036E-02 -0.10951E-01 -0.11974E-01
 -0.12703E-01 -0.13068E-01 -0.13001E-01 -0.12467E-01 -0.11490E-01 -0.10158E-01
 -0.86113E-02 -0.70226E-02 -0.55924E-02 -0.45136E-02 -0.39294E-02 -0.39121E-02
 -0.44671E-02 -0.55361E-02 -0.70007E-02 -0.87097E-02 -0.10521E-01 -0.12318E-01
 -0.14006E-01 -0.15498E-01 -0.16732E-01 -0.17671E-01 -0.18284E-01 -0.18534E-01
 -0.18394E-01 -0.17865E-01 -0.16966E-01 -0.15717E-01 -0.14144E-01 -0.12297E-01
 -0.99984E-02 -0.90133E-02 -0.75075E-02 -0.54696E-02 -0.29567E-02 -0.98572E-04
  0.29285E-02  0.59162E-02  0.86232E-02  0.10800E-01  0.12253E-01  0.12905E-01
  0.12789E-01  0.12010E-01  0.10715E-01  0.90648E-02  0.72169E-02  0.52953E-02
  0.33823E-02  0.15270E-02 -0.24672E-03 -0.19339E-02 -0.35344E-02 -0.50447E-02
 -0.64667E-02 -0.78138E-02 -0.90901E-02 -0.10262E-01 -0.11264E-01 -0.12030E-01
 -0.12505E-01 -0.12637E-01 -0.12375E-01 -0.11702E-01 -0.10663E-01 -0.93561E-02
 -0.79302E-02 -0.65762E-02 -0.55018E-02 -0.48750E-02 -0.47810E-02 -0.52228E-02
 -0.61435E-02 -0.74382E-02 -0.89693E-02 -0.10600E-01 -0.12224E-01 -0.13761E-01
 -0.15138E-01 -0.16301E-01 -0.17219E-01 -0.17874E-01 -0.18234E-01 -0.18262E-01
 -0.17946E-01 -0.17306E-01 -0.16364E-01 -0.15130E-01 -0.13623E-01 -0.11889E-01
 -0.10370E-01 -0.90536E-02 -0.71768E-02 -0.47718E-02 -0.19459E-02  0.11354E-02
  0.42688E-02  0.72153E-02  0.97132E-02  0.11533E-01  0.12545E-01  0.12734E-01
  0.12174E-01  0.10997E-01  0.93715E-02  0.74825E-02  0.54880E-02  0.34947E-02
  0.15689E-02 -0.24672E-03 -0.19311E-02 -0.34839E-02 -0.49130E-02 -0.62288E-02
 -0.74523E-02 -0.86076E-02 -0.96920E-02 -0.10662E-01 -0.11457E-01 -0.12031E-01
 -0.12340E-01 -0.12331E-01 -0.11951E-01 -0.11191E-01 -0.10106E-01 -0.88116E-02
 -0.74857E-02 -0.63491E-02 -0.56070E-02 -0.53773E-02 -0.56684E-02 -0.64127E-02
 -0.75049E-02 -0.88202E-02 -0.10234E-01 -0.11647E-01 -0.12993E-01 -0.14218E-01
 -0.15274E-01 -0.16130E-01 -0.16776E-01 -0.17193E-01 -0.17340E-01 -0.17195E-01
 -0.16769E-01 -0.16091E-01 -0.15173E-01 -0.14015E-01 -0.12633E-01 -0.11071E-01
 -0.10695E-01 -0.90206E-02 -0.67697E-02 -0.40284E-02 -0.94483E-03  0.22923E-02
  0.54565E-02  0.82854E-02  0.10520E-01  0.11972E-01  0.12566E-01  0.12325E-01
  0.11348E-01  0.97967E-02  0.78818E-02  0.58060E-02  0.37143E-02  0.16921E-02
 -0.20414E-03 -0.19339E-02 -0.34839E-02 -0.48681E-02 -0.61103E-02 -0.72385E-02
 -0.82855E-02 -0.92738E-02 -0.10192E-01 -0.11002E-01 -0.11664E-01 -0.12143E-01
 -0.12383E-01 -0.12302E-01 -0.11830E-01 -0.10960E-01 -0.97635E-02 -0.84013E-02
 -0.71098E-02 -0.61445E-02 -0.56813E-02 -0.57545E-02 -0.62830E-02 -0.71412E-02
 -0.82034E-02 -0.93578E-02 -0.10519E-01 -0.11633E-01 -0.12663E-01 -0.13573E-01
 -0.14331E-01 -0.14926E-01 -0.15346E-01 -0.15564E-01 -0.15545E-01 -0.15291E-01
 -0.14828E-01 -0.14176E-01 -0.13333E-01 -0.12300E-01 -0.11104E-01 -0.97834E-02
 -0.10942E-01 -0.88865E-02 -0.62805E-02 -0.32581E-02  0.10777E-04  0.33264E-02
  0.64476E-02  0.91057E-02  0.11061E-01  0.12161E-01  0.12358E-01  0.11695E-01
  0.10306E-01  0.84084E-02  0.62521E-02  0.40399E-02  0.18932E-02 -0.11769E-03
 -0.19381E-02 -0.35344E-02 -0.49130E-02 -0.61103E-02 -0.71690E-02 -0.81287E-02
 -0.90250E-02 -0.98763E-02 -0.10676E-01 -0.11406E-01 -0.12040E-01 -0.12528E-01
 -0.12764E-01 -0.12621E-01 -0.12005E-01 -0.10909E-01 -0.94511E-02 -0.78843E-02
 -0.65365E-02 -0.56822E-02 -0.54210E-02 -0.56699E-02 -0.62621E-02 -0.70431E-02
 -0.79026E-02 -0.87695E-02 -0.96068E-02 -0.10397E-01 -0.11118E-01 -0.11740E-01
 -0.12246E-01 -0.12626E-01 -0.12864E-01 -0.12926E-01 -0.12801E-01 -0.12507E-01
 -0.12068E-01 -0.11487E-01 -0.10763E-01 -0.99163E-02 -0.89787E-02 -0.79784E-02
 -0.11032E-01 -0.86027E-02 -0.56996E-02 -0.24796E-02  0.89123E-03  0.42167E-02
  0.72509E-02  0.97243E-02  0.11405E-01  0.12151E-01  0.11929E-01  0.10820E-01
  0.90250E-02  0.68215E-02  0.44772E-02  0.21750E-02  0.15599E-04 -0.19349E-02
 -0.36258E-02 -0.50447E-02 -0.62288E-02 -0.72385E-02 -0.81287E-02 -0.89437E-02
 -0.97207E-02 -0.10486E-01 -0.11250E-01 -0.12010E-01 -0.12725E-01 -0.13291E-01
 -0.13538E-01 -0.13272E-01 -0.12359E-01 -0.10813E-01 -0.88661E-02 -0.69369E-02
 -0.54613E-02 -0.46751E-02 -0.45307E-02 -0.48058E-02 -0.52763E-02 -0.58044E-02
 -0.63294E-02 -0.68360E-02 -0.73304E-02 -0.78123E-02 -0.82589E-02 -0.86413E-02
 -0.89452E-02 -0.91592E-02 -0.92580E-02 -0.92191E-02 -0.90493E-02 -0.87723E-02
 -0.83980E-02 -0.79270E-02 -0.73804E-02 -0.67979E-02 -0.62060E-02 -0.56092E-02
 -0.10866E-01 -0.81184E-02 -0.50142E-02 -0.16921E-02  0.17116E-02  0.50123E-02
  0.79529E-02  0.10240E-01  0.11620E-01  0.11953E-01  0.11248E-01  0.96657E-02
  0.74877E-02  0.50299E-02  0.25494E-02  0.20416E-03 -0.19149E-02 -0.37447E-02
 -0.52539E-02 -0.64667E-02 -0.74523E-02 -0.82855E-02 -0.90250E-02 -0.97207E-02
 -0.10424E-01 -0.11182E-01 -0.12018E-01 -0.12918E-01 -0.13796E-01 -0.14476E-01
 -0.14688E-01 -0.14135E-01 -0.12636E-01 -0.10310E-01 -0.76380E-02 -0.52745E-02
 -0.36977E-02 -0.29745E-02 -0.28341E-02 -0.29359E-02 -0.30693E-02 -0.31718E-02
 -0.32600E-02 -0.33752E-02 -0.35471E-02 -0.37668E-02 -0.39936E-02 -0.41933E-02
 -0.43511E-02 -0.44481E-02 -0.44558E-02 -0.43654E-02 -0.41978E-02 -0.39734E-02
 -0.36968E-02 -0.33876E-02 -0.30981E-02 -0.28778E-02 -0.27355E-02 -0.26488E-02
 -0.10347E-01 -0.73821E-02 -0.41852E-02 -0.84094E-03  0.25577E-02  0.58281E-02
  0.86690E-02  0.10725E-01  0.11713E-01  0.11527E-01  0.10271E-01  0.82113E-02
  0.56908E-02  0.30312E-02  0.46577E-03 -0.18643E-02 -0.38756E-02 -0.55236E-02
 -0.68153E-02 -0.78138E-02 -0.86076E-02 -0.92738E-02 -0.98763E-02 -0.10486E-01
 -0.11182E-01 -0.12027E-01 -0.13038E-01 -0.14167E-01 -0.15268E-01 -0.16049E-01
 -0.16067E-01 -0.14882E-01 -0.12369E-01 -0.89562E-02 -0.55156E-02 -0.28708E-02
 -0.13258E-02 -0.61024E-03 -0.23175E-03  0.14888E-03  0.61443E-03  0.10995E-02
  0.15068E-02  0.17626E-02  0.18516E-02  0.18245E-02  0.17518E-02  0.16733E-02
  0.16072E-02  0.15828E-02  0.16280E-02  0.17345E-02  0.18700E-02  0.20163E-02
  0.21567E-02  0.22343E-02  0.21630E-02  0.18910E-02  0.14300E-02  0.83711E-03
 -0.94003E-02 -0.63311E-02 -0.31372E-02  0.17320E-03  0.35482E-02  0.67745E-02
  0.94603E-02  0.11170E-01  0.11623E-01  0.10810E-01  0.89644E-02  0.64478E-02
  0.36322E-02  0.82577E-03 -0.17589E-02 -0.39972E-02 -0.58290E-02 -0.72488E-02
 -0.83064E-02 -0.90901E-02 -0.96920E-02 -0.10192E-01 -0.10676E-01 -0.11250E-01
 -0.12018E-01 -0.13038E-01 -0.14305E-01 -0.15728E-01 -0.17054E-01 -0.17776E-01
 -0.17207E-01 -0.14872E-01 -0.10979E-01 -0.64998E-02 -0.26317E-02 -0.41171E-04
  0.14434E-02  0.24646E-02  0.35405E-02  0.47955E-02  0.60906E-02  0.72406E-02
  0.81119E-02  0.86516E-02  0.89080E-02  0.89977E-02  0.90177E-02  0.90072E-02
  0.89914E-02  0.90112E-02  0.90848E-02  0.91814E-02  0.92617E-02  0.93032E-02
  0.92546E-02  0.90014E-02  0.84212E-02  0.74643E-02  0.61686E-02  0.46493E-02
 -0.79828E-02 -0.49176E-02 -0.18063E-02  0.14307E-02  0.47598E-02  0.78842E-02
  0.10286E-01  0.11474E-01  0.11241E-01  0.97254E-02  0.72914E-02  0.43608E-02
  0.13121E-02 -0.15627E-02 -0.40757E-02 -0.61364E-02 -0.77288E-02 -0.88916E-02
 -0.97036E-02 -0.10262E-01 -0.10662E-01 -0.11002E-01 -0.11406E-01 -0.12010E-01
 -0.12918E-01 -0.14167E-01 -0.15728E-01 -0.17428E-01 -0.18794E-01 -0.19006E-01
 -0.17245E-01 -0.13347E-01 -0.81775E-02 -0.31972E-02  0.51627E-03  0.29230E-02
  0.47624E-02  0.67517E-02  0.90710E-02  0.11472E-01  0.13639E-01  0.15368E-01
  0.16568E-01  0.17263E-01  0.17597E-01  0.17748E-01  0.17819E-01  0.17844E-01
  0.17859E-01  0.17909E-01  0.17988E-01  0.18046E-01  0.18044E-01  0.17940E-01
  0.17612E-01  0.16872E-01  0.15574E-01  0.13684E-01  0.11273E-01  0.85424E-02
 -0.61370E-02 -0.31792E-02 -0.20824E-03  0.29352E-02  0.61792E-02  0.90816E-02
  0.11003E-01  0.11473E-01  0.10435E-01  0.81951E-02  0.52168E-02  0.19504E-02
 -0.12311E-02 -0.40619E-02 -0.63995E-02 -0.82086E-02 -0.95207E-02 -0.10404E-01
 -0.10951E-01 -0.11264E-01 -0.11457E-01 -0.11664E-01 -0.12040E-01 -0.12725E-01
 -0.13796E-01 -0.15268E-01 -0.17054E-01 -0.18794E-01 -0.19688E-01 -0.18711E-01
 -0.15303E-01 -0.10018E-01 -0.43492E-02  0.30877E-03  0.36493E-02  0.64286E-02
  0.95400E-02  0.13212E-01  0.17035E-01  0.20496E-01  0.23316E-01  0.25402E-01
  0.26753E-01  0.27493E-01  0.27857E-01  0.28049E-01  0.28156E-01  0.28205E-01
  0.28246E-01  0.28309E-01  0.28357E-01  0.28339E-01  0.28214E-01  0.27877E-01
  0.27109E-01  0.25668E-01  0.23428E-01  0.20374E-01  0.16590E-01  0.12369E-01
 -0.40455E-02 -0.12698E-02  0.15565E-02  0.46148E-02  0.76988E-02  0.10187E-01
  0.11390E-01  0.10972E-01  0.90812E-02  0.61691E-02  0.27509E-02 -0.72016E-03
 -0.38941E-02 -0.65558E-02 -0.86305E-02 -0.10139E-01 -0.11141E-01 -0.11719E-01
 -0.11974E-01 -0.12030E-01 -0.12031E-01 -0.12143E-01 -0.12528E-01 -0.13291E-01
 -0.14476E-01 -0.16049E-01 -0.17776E-01 -0.19006E-01 -0.18711E-01 -0.16066E-01
 -0.11231E-01 -0.54846E-02 -0.31869E-03  0.37543E-02  0.74598E-02  0.11826E-01
  0.17105E-01  0.22656E-01  0.27667E-01  0.31747E-01  0.34874E-01  0.37092E-01
  0.38467E-01  0.39207E-01  0.39602E-01  0.39843E-01  0.39985E-01  0.40060E-01
  0.40117E-01  0.40155E-01  0.40122E-01  0.39973E-01  0.39636E-01  0.38901E-01
  0.37469E-01  0.35128E-01  0.31805E-01  0.27444E-01  0.22068E-01  0.16083E-01
 -0.19842E-02  0.61997E-03  0.33729E-02  0.63512E-02  0.91267E-02  0.10945E-01
  0.11211E-01  0.98237E-02  0.71365E-02  0.36862E-02 -0.65359E-05 -0.35119E-02
 -0.65298E-02 -0.89201E-02 -0.10676E-01 -0.11851E-01 -0.12514E-01 -0.12757E-01
 -0.12703E-01 -0.12505E-01 -0.12340E-01 -0.12383E-01 -0.12764E-01 -0.13538E-01
 -0.14688E-01 -0.16067E-01 -0.17207E-01 -0.17245E-01 -0.15303E-01 -0.11231E-01
 -0.59556E-02 -0.82985E-03  0.35833E-02  0.80055E-02  0.13591E-01  0.20621E-01
  0.28169E-01  0.34985E-01  0.40458E-01  0.44677E-01  0.47869E-01  0.50101E-01
  0.51460E-01  0.52220E-01  0.52681E-01  0.52985E-01  0.53163E-01  0.53256E-01
  0.53296E-01  0.53248E-01  0.53062E-01  0.52692E-01  0.51979E-01  0.50610E-01
  0.48305E-01  0.44974E-01  0.40543E-01  0.34774E-01  0.27569E-01  0.19550E-01
 -0.15584E-03  0.23961E-02  0.51654E-02  0.79854E-02  0.10209E-01  0.11101E-01
  0.10309E-01  0.80064E-02  0.46831E-02  0.89023E-03 -0.28821E-02 -0.62518E-02
 -0.89929E-02 -0.11044E-01 -0.12444E-01 -0.13253E-01 -0.13546E-01 -0.13432E-01
 -0.13068E-01 -0.12637E-01 -0.12331E-01 -0.12302E-01 -0.12621E-01 -0.13272E-01
 -0.14135E-01 -0.14882E-01 -0.14872E-01 -0.13347E-01 -0.10018E-01 -0.54846E-02
 -0.82985E-03  0.34793E-02  0.82312E-02  0.14750E-01  0.23430E-01  0.33110E-01
  0.41996E-01  0.49056E-01  0.54409E-01  0.58586E-01  0.61808E-01  0.64045E-01
  0.65418E-01  0.66253E-01  0.66807E-01  0.67165E-01  0.67358E-01  0.67438E-01
  0.67402E-01  0.67192E-01  0.66764E-01  0.66019E-01  0.64686E-01  0.62434E-01
  0.59139E-01  0.54829E-01  0.49268E-01  0.41899E-01  0.32587E-01  0.22379E-01
  0.14520E-02  0.40933E-02  0.68621E-02  0.93044E-02  0.10692E-01  0.10496E-01
  0.86872E-02  0.56466E-02  0.19068E-02 -0.20164E-02 -0.56813E-02 -0.87733E-02
 -0.11151E-01 -0.12815E-01 -0.13819E-01 -0.14225E-01 -0.14122E-01 -0.13652E-01
 -0.13001E-01 -0.12375E-01 -0.11951E-01 -0.11830E-01 -0.12005E-01 -0.12359E-01
 -0.12636E-01 -0.12369E-01 -0.10979E-01 -0.81775E-02 -0.43492E-02 -0.31869E-03
  0.35833E-02  0.82312E-02  0.15161E-01  0.25032E-01  0.36659E-01  0.47764E-01
  0.56705E-01  0.63384E-01  0.68593E-01  0.72873E-01  0.76199E-01  0.78478E-01
  0.79917E-01  0.80849E-01  0.81453E-01  0.81795E-01  0.81954E-01  0.81982E-01
  0.81821E-01  0.81382E-01  0.80587E-01  0.79243E-01  0.77008E-01  0.73672E-01
  0.69329E-01  0.63997E-01  0.57105E-01  0.47821E-01  0.36228E-01  0.24018E-01
  0.30154E-02  0.57547E-02  0.83159E-02  0.10069E-01  0.10411E-01  0.91413E-02
  0.65011E-02  0.29635E-02 -0.96593E-03 -0.48199E-02 -0.82141E-02 -0.10917E-01
 -0.12867E-01 -0.14097E-01 -0.14664E-01 -0.14638E-01 -0.14140E-01 -0.13346E-01
 -0.12467E-01 -0.11702E-01 -0.11191E-01 -0.10960E-01 -0.10909E-01 -0.10813E-01
 -0.10310E-01 -0.89562E-02 -0.64998E-02 -0.31972E-02  0.30877E-03  0.37543E-02
  0.80055E-02  0.14750E-01  0.25032E-01  0.37965E-01  0.51084E-01  0.62135E-01
  0.70508E-01  0.76996E-01  0.82465E-01  0.87058E-01  0.90523E-01  0.92845E-01
  0.94310E-01  0.95193E-01  0.95650E-01  0.95848E-01  0.95954E-01  0.95968E-01
  0.95715E-01  0.95019E-01  0.93708E-01  0.91495E-01  0.88081E-01  0.83484E-01
  0.77957E-01  0.71341E-01  0.62726E-01  0.51277E-01  0.37614E-01  0.24086E-01
  0.46591E-02  0.72867E-02  0.93012E-02  0.10103E-01  0.93707E-02  0.72052E-02
  0.39934E-02  0.20362E-03 -0.37032E-02 -0.73058E-02 -0.10293E-01 -0.12524E-01
 -0.13994E-01 -0.14749E-01 -0.14851E-01 -0.14398E-01 -0.13550E-01 -0.12510E-01
 -0.11490E-01 -0.10663E-01 -0.10106E-01 -0.97635E-02 -0.94511E-02 -0.88661E-02
 -0.76379E-02 -0.55156E-02 -0.26317E-02  0.51627E-03  0.36493E-02  0.74598E-02
  0.13591E-01  0.23430E-01  0.36659E-01  0.51084E-01  0.64116E-01  0.74512E-01
  0.82700E-01  0.89651E-01  0.95725E-01  0.10064E+00  0.10412E+00  0.10629E+00
  0.10743E+00  0.10781E+00  0.10779E+00  0.10779E+00  0.10802E+00  0.10828E+00
  0.10813E+00  0.10721E+00  0.10521E+00  0.10185E+00  0.96992E-01  0.90913E-01
  0.83898E-01  0.75556E-01  0.64871E-01  0.51391E-01  0.36411E-01  0.22639E-01
  0.62908E-02  0.84578E-02  0.96227E-02  0.93926E-02  0.77400E-02  0.49489E-02
  0.14299E-02 -0.23866E-02 -0.60752E-02 -0.92706E-02 -0.11752E-01 -0.13460E-01
 -0.14419E-01 -0.14681E-01 -0.14327E-01 -0.13500E-01 -0.12390E-01 -0.11211E-01
 -0.10158E-01 -0.93561E-02 -0.88116E-02 -0.84013E-02 -0.78843E-02 -0.69369E-02
 -0.52745E-02 -0.28708E-02 -0.41171E-04  0.29230E-02  0.64286E-02  0.11826E-01
  0.20621E-01  0.33110E-01  0.47764E-01  0.62135E-01  0.74512E-01  0.84734E-01
  0.93532E-01  0.10136E+00  0.10797E+00  0.11289E+00  0.11596E+00  0.11731E+00
  0.11726E+00  0.11643E+00  0.11572E+00  0.11585E+00  0.11682E+00  0.11790E+00
  0.11821E+00  0.11711E+00  0.11423E+00  0.10943E+00  0.10288E+00  0.95047E-01
  0.86163E-01  0.75749E-01  0.63039E-01  0.48207E-01  0.33046E-01  0.20118E-01
  0.76505E-02  0.90505E-02  0.92469E-02  0.81048E-02  0.57958E-02  0.26554E-02
 -0.93638E-03 -0.45797E-02 -0.78863E-02 -0.10569E-01 -0.12499E-01 -0.13667E-01
 -0.14109E-01 -0.13891E-01 -0.13138E-01 -0.12028E-01 -0.10774E-01 -0.95817E-02
 -0.86113E-02 -0.79302E-02 -0.74857E-02 -0.71098E-02 -0.65365E-02 -0.54613E-02
 -0.36977E-02 -0.13258E-02  0.14434E-02  0.47624E-02  0.95400E-02  0.17105E-01
  0.28169E-01  0.41996E-01  0.56705E-01  0.70508E-01  0.82700E-01  0.93532E-01
  0.10332E+00  0.11183E+00  0.11846E+00  0.12270E+00  0.12433E+00  0.12353E+00
  0.12112E+00  0.11861E+00  0.11762E+00  0.11888E+00  0.12167E+00  0.12437E+00
  0.12546E+00  0.12409E+00  0.12006E+00  0.11356E+00  0.10511E+00  0.95305E-01
  0.84358E-01  0.71937E-01  0.57786E-01  0.42651E-01  0.28410E-01  0.17035E-01