       #
       # Generated by the Wannier90 code http://www.wannier.org
       # On 26Jul2025 at 02:43:56 
       #
CRYSTAL
PRIMVEC
   0.0000000   3.2446001   3.2446001
   3.2446001   0.0000000   3.2446001
   3.2446001   3.2446001   0.0000000
CONVVEC
   0.0000000   3.2446001   3.2446001
   3.2446001   0.0000000   3.2446001
   3.2446001   3.2446001   0.0000000
PRIMCOORD
     2  1
Sn      0.0000000   0.0000000   0.0000000
Sn      1.6223000   1.6223000   1.6223000


BEGIN_BLOCK_DATAGRID_3D
3D_field
BEGIN_DATAGRID_3D_UNKNOWN
    60    60    60
   -6.705507   -6.705507   -6.705507
   0.0000000   6.3810469   6.3810469
   6.3810469   0.0000000   6.3810469
   6.3810469   6.3810469   0.0000000
 -0.14295E-02 -0.27197E-02 -0.41315E-02 -0.55868E-02 -0.68734E-02 -0.77301E-02
 -0.79830E-02 -0.76163E-02 -0.67416E-02 -0.55260E-02 -0.41430E-02 -0.27497E-02
 -0.14701E-02 -0.38527E-03  0.46419E-03  0.10687E-02  0.14445E-02  0.16286E-02
  0.16714E-02  0.16310E-02  0.15732E-02  0.15661E-02  0.16720E-02  0.19431E-02
  0.24153E-02  0.30778E-02  0.38326E-02  0.45075E-02  0.49608E-02  0.52053E-02
  0.54077E-02  0.57147E-02  0.60510E-02  0.61075E-02  0.55683E-02  0.43650E-02
  0.27032E-02  0.85316E-03 -0.10497E-02 -0.29975E-02 -0.49663E-02 -0.68462E-02
 -0.85085E-02 -0.98847E-02 -0.10958E-01 -0.11717E-01 -0.12142E-01 -0.12233E-01
 -0.11999E-01 -0.11448E-01 -0.10593E-01 -0.94595E-02 -0.80707E-02 -0.64388E-02
 -0.46044E-02 -0.26786E-02 -0.82142E-03  0.81371E-03  0.20805E-02  0.27992E-02
 -0.27197E-02 -0.42351E-02 -0.57966E-02 -0.72031E-02 -0.81923E-02 -0.85661E-02
 -0.82789E-02 -0.74245E-02 -0.61651E-02 -0.46771E-02 -0.31271E-02 -0.16564E-02
 -0.36684E-03  0.67994E-03  0.14539E-02  0.19555E-02  0.22164E-02  0.22895E-02
  0.22350E-02  0.21184E-02  0.20148E-02  0.20016E-02  0.21452E-02  0.24980E-02
  0.30864E-02  0.38679E-02  0.46907E-02  0.53432E-02  0.57001E-02  0.58368E-02
  0.59573E-02  0.61635E-02  0.62926E-02  0.60136E-02  0.51061E-02  0.36374E-02
  0.18633E-02 -0.87836E-05 -0.19276E-02 -0.39005E-02 -0.58635E-02 -0.76822E-02
 -0.92451E-02 -0.10507E-01 -0.11455E-01 -0.12068E-01 -0.12332E-01 -0.12244E-01
 -0.11812E-01 -0.11054E-01 -0.99983E-02 -0.86816E-02 -0.71263E-02 -0.53634E-02
 -0.34795E-02 -0.16227E-02  0.47228E-04  0.13857E-02  0.22295E-02  0.23958E-02
 -0.41315E-02 -0.57966E-02 -0.73175E-02 -0.84285E-02 -0.89177E-02 -0.87195E-02
 -0.79128E-02 -0.66513E-02 -0.51042E-02 -0.34379E-02 -0.18061E-02 -0.33136E-03
  0.90485E-03  0.18542E-02  0.24972E-02  0.28502E-02  0.29623E-02  0.28964E-02
  0.27186E-02  0.25054E-02  0.23457E-02  0.23224E-02  0.24993E-02  0.29213E-02
  0.35941E-02  0.44277E-02  0.52170E-02  0.57450E-02  0.59550E-02  0.60086E-02
  0.61195E-02  0.63023E-02  0.63008E-02  0.57927E-02  0.46623E-02  0.30649E-02
  0.12457E-02 -0.65672E-03 -0.26208E-02 -0.46183E-02 -0.65448E-02 -0.82728E-02
 -0.97234E-02 -0.10866E-01 -0.11679E-01 -0.12135E-01 -0.12218E-01 -0.11928E-01
 -0.11283E-01 -0.10315E-01 -0.90741E-02 -0.75981E-02 -0.59194E-02 -0.41014E-02
 -0.22670E-02 -0.57137E-03  0.83649E-03  0.18000E-02  0.21363E-02  0.17144E-02
 -0.55868E-02 -0.72031E-02 -0.84285E-02 -0.90340E-02 -0.89347E-02 -0.81975E-02
 -0.69695E-02 -0.54095E-02 -0.36729E-02 -0.19165E-02 -0.28217E-03  0.11260E-02
  0.22433E-02  0.30341E-02  0.34949E-02  0.36606E-02  0.35924E-02  0.33585E-02
  0.30349E-02  0.27148E-02  0.24969E-02  0.24597E-02  0.26555E-02  0.31134E-02
  0.38034E-02  0.45820E-02  0.52203E-02  0.55582E-02  0.56529E-02  0.57338E-02
  0.59597E-02  0.62133E-02  0.61594E-02  0.55178E-02  0.42713E-02  0.26184E-02
  0.77058E-03 -0.11708E-02 -0.31661E-02 -0.51431E-02 -0.69872E-02 -0.85995E-02
 -0.99258E-02 -0.10933E-01 -0.11585E-01 -0.11854E-01 -0.11729E-01 -0.11221E-01
 -0.10365E-01 -0.92144E-02 -0.78249E-02 -0.62397E-02 -0.45094E-02 -0.27274E-02
 -0.10296E-02  0.43698E-03  0.15182E-02  0.20333E-02  0.18178E-02  0.86009E-03
 -0.68734E-02 -0.81923E-02 -0.89177E-02 -0.89347E-02 -0.82899E-02 -0.71243E-02
 -0.55915E-02 -0.38326E-02 -0.19947E-02 -0.23146E-03  0.13279E-02  0.25985E-02
  0.35323E-02  0.41092E-02  0.43439E-02  0.42871E-02  0.40078E-02  0.35829E-02
  0.31050E-02  0.26813E-02  0.24084E-02  0.23501E-02  0.25424E-02  0.29888E-02
  0.36149E-02  0.42422E-02  0.46746E-02  0.48627E-02  0.49707E-02  0.52226E-02
  0.56497E-02  0.59980E-02  0.59057E-02  0.51737E-02  0.38690E-02  0.22014E-02
  0.34854E-03 -0.15960E-02 -0.35627E-02 -0.54568E-02 -0.71772E-02 -0.86493E-02
 -0.98229E-02 -0.10654E-01 -0.11103E-01 -0.11151E-01 -0.10803E-01 -0.10087E-01
 -0.90541E-02 -0.77686E-02 -0.62880E-02 -0.46638E-02 -0.29684E-02 -0.13113E-02
  0.17425E-03  0.13427E-02  0.20228E-02  0.20347E-02  0.12952E-02 -0.56505E-04
 -0.77301E-02 -0.85661E-02 -0.87195E-02 -0.81975E-02 -0.71243E-02 -0.56519E-02
 -0.39148E-02 -0.20450E-02 -0.19355E-03  0.14903E-02  0.28961E-02  0.39604E-02
  0.46519E-02  0.49668E-02  0.49369E-02  0.46258E-02  0.41138E-02  0.34934E-02
  0.28725E-02  0.23603E-02  0.20391E-02  0.19553E-02  0.21258E-02  0.25216E-02
  0.30317E-02  0.34842E-02  0.37662E-02  0.39419E-02  0.42128E-02  0.47099E-02
  0.53120E-02  0.56857E-02  0.55177E-02  0.47137E-02  0.33972E-02  0.17627E-02
 -0.42355E-04 -0.19226E-02 -0.37888E-02 -0.55437E-02 -0.71007E-02 -0.83928E-02
 -0.93641E-02 -0.99684E-02 -0.10179E-01 -0.99944E-02 -0.94360E-02 -0.85475E-02
 -0.73904E-02 -0.60302E-02 -0.45266E-02 -0.29452E-02 -0.13756E-02  0.68810E-04
  0.12601E-02  0.20487E-02  0.22638E-02  0.17799E-02  0.63580E-03 -0.91009E-03
 -0.79830E-02 -0.82789E-02 -0.79128E-02 -0.69695E-02 -0.55915E-02 -0.39148E-02
 -0.20629E-02 -0.17493E-03  0.15944E-02  0.31108E-02  0.42887E-02  0.50851E-02
  0.54830E-02  0.54941E-02  0.51675E-02  0.45840E-02  0.38413E-02  0.30471E-02
  0.23132E-02  0.17373E-02  0.13845E-02  0.12850E-02  0.14335E-02  0.17702E-02
  0.21735E-02  0.25189E-02  0.27862E-02  0.30971E-02  0.36020E-02  0.42969E-02
  0.49544E-02  0.52528E-02  0.49818E-02  0.41398E-02  0.28666E-02  0.13217E-02
 -0.37342E-03 -0.21205E-02 -0.38221E-02 -0.53845E-02 -0.67282E-02 -0.77868E-02
 -0.85056E-02 -0.88503E-02 -0.88128E-02 -0.84097E-02 -0.76773E-02 -0.66690E-02
 -0.54482E-02 -0.40793E-02 -0.26297E-02 -0.11805E-02  0.16965E-03  0.13125E-02
  0.21275E-02  0.24739E-02  0.22215E-02  0.13395E-02 -0.24195E-04 -0.15686E-02
 -0.76163E-02 -0.74245E-02 -0.66513E-02 -0.54095E-02 -0.38326E-02 -0.20450E-02
 -0.17493E-03  0.16300E-02  0.32230E-02  0.44936E-02  0.53809E-02  0.58571E-02
  0.59179E-02  0.55929E-02  0.49549E-02  0.41083E-02  0.31677E-02  0.22449E-02
  0.14421E-02  0.84039E-03  0.48935E-03  0.40186E-03  0.54902E-03  0.85468E-03
  0.12170E-02  0.15732E-02  0.19578E-02  0.24741E-02  0.31712E-02  0.39372E-02
  0.45242E-02  0.46913E-02  0.43364E-02  0.35086E-02  0.23301E-02  0.92260E-03
 -0.60825E-03 -0.21613E-02 -0.36383E-02 -0.49521E-02 -0.60296E-02 -0.68092E-02
 -0.72466E-02 -0.73240E-02 -0.70522E-02 -0.64643E-02 -0.56086E-02 -0.45422E-02
 -0.33257E-02 -0.20243E-02 -0.71548E-03  0.50950E-03  0.15551E-02  0.23263E-02
  0.27194E-02  0.26272E-02  0.19905E-02  0.87085E-03 -0.52949E-03 -0.19404E-02
 -0.67416E-02 -0.61651E-02 -0.51042E-02 -0.36729E-02 -0.19947E-02 -0.19355E-03
  0.15944E-02  0.32230E-02  0.45629E-02  0.55286E-02  0.60763E-02  0.61900E-02
  0.58816E-02  0.52078E-02  0.42733E-02  0.32058E-02  0.21256E-02  0.11349E-02
  0.31921E-03 -0.25687E-03 -0.56092E-03 -0.60049E-03 -0.42133E-03 -0.94690E-04
  0.31307E-03  0.78037E-03  0.13411E-02  0.20329E-02  0.28144E-02  0.35330E-02
  0.39879E-02  0.40361E-02  0.36481E-02  0.28835E-02  0.18362E-02  0.60414E-03
 -0.71279E-03 -0.20151E-02 -0.32132E-02 -0.42317E-02 -0.50056E-02 -0.54812E-02
 -0.56272E-02 -0.54446E-02 -0.49655E-02 -0.42409E-02 -0.33271E-02 -0.22775E-02
 -0.11459E-02  0.14464E-05  0.10817E-02  0.20062E-02  0.26946E-02  0.30723E-02
  0.30634E-02  0.26103E-02  0.17250E-02  0.52522E-03 -0.78957E-03 -0.20147E-02
 -0.55260E-02 -0.46771E-02 -0.34379E-02 -0.19165E-02 -0.23146E-03  0.14903E-02
  0.31108E-02  0.44936E-02  0.55286E-02  0.61474E-02  0.63184E-02  0.60398E-02
  0.53511E-02  0.43477E-02  0.31668E-02  0.19475E-02  0.80097E-03 -0.18887E-03
 -0.95465E-03 -0.14503E-02 -0.16650E-02 -0.16247E-02 -0.13779E-02 -0.97689E-03
 -0.46129E-03  0.15265E-03  0.86252E-03  0.16429E-02  0.24090E-02  0.30250E-02
  0.33589E-02  0.33402E-02  0.29721E-02  0.23072E-02  0.14218E-02  0.40449E-03
 -0.65132E-03 -0.16587E-02 -0.25440E-02 -0.32419E-02 -0.36921E-02 -0.38493E-02
 -0.37013E-02 -0.32774E-02 -0.26374E-02 -0.18471E-02 -0.95923E-03 -0.13110E-04
  0.94752E-03  0.18593E-02  0.26446E-02  0.32304E-02  0.35579E-02  0.35754E-02
  0.32384E-02  0.25377E-02  0.15345E-02  0.36262E-03 -0.81235E-03 -0.18469E-02
 -0.41430E-02 -0.31271E-02 -0.18061E-02 -0.28217E-03  0.13279E-02  0.28961E-02
  0.42887E-02  0.53809E-02  0.60763E-02  0.63184E-02  0.60887E-02  0.54115E-02
  0.43672E-02  0.30926E-02  0.17453E-02  0.45820E-03 -0.67778E-03 -0.15990E-02
 -0.22575E-02 -0.26298E-02 -0.27269E-02 -0.25840E-02 -0.22411E-02 -0.17352E-02
 -0.11013E-02 -0.37310E-03  0.41190E-03  0.11977E-02  0.18998E-02  0.24198E-02
  0.26804E-02  0.26502E-02  0.23450E-02  0.18137E-02  0.11260E-02  0.36168E-03
 -0.40188E-03 -0.10965E-02 -0.16589E-02 -0.20243E-02 -0.21353E-02 -0.19652E-02
 -0.15379E-02 -0.92226E-03 -0.20175E-03  0.56003E-03  0.13312E-02  0.20936E-02
  0.28145E-02  0.34382E-02  0.39016E-02  0.41538E-02  0.41567E-02  0.38787E-02
  0.33047E-02  0.24624E-02  0.14369E-02  0.35302E-03 -0.66141E-03 -0.15034E-02
 -0.27497E-02 -0.16564E-02 -0.33136E-03  0.11260E-02  0.25985E-02  0.39604E-02
  0.50851E-02  0.58571E-02  0.61900E-02  0.60398E-02  0.54115E-02  0.43686E-02
  0.30373E-02  0.15834E-02  0.16494E-03 -0.11062E-02 -0.21626E-02 -0.29603E-02
 -0.34726E-02 -0.36993E-02 -0.36664E-02 -0.34094E-02 -0.29615E-02 -0.23584E-02
 -0.16439E-02 -0.86611E-03 -0.74844E-04  0.67270E-03  0.13086E-02  0.17661E-02
  0.20008E-02  0.20037E-02  0.17999E-02  0.14389E-02  0.98219E-03  0.49165E-03
  0.24623E-04 -0.36053E-03 -0.59723E-03 -0.61824E-03 -0.38270E-03  0.94962E-04
  0.74098E-03  0.14532E-02  0.21479E-02  0.27884E-02  0.33737E-02  0.39033E-02
  0.43515E-02  0.46732E-02  0.48251E-02  0.47772E-02  0.45082E-02  0.40051E-02
  0.32781E-02  0.23788E-02  0.13977E-02  0.44102E-03 -0.39351E-03 -0.10260E-02
 -0.14701E-02 -0.36684E-03  0.90485E-03  0.22433E-02  0.35323E-02  0.46519E-02
  0.54830E-02  0.59179E-02  0.58816E-02  0.53511E-02  0.43672E-02  0.30373E-02
  0.15216E-02 -0.60716E-05 -0.14059E-02 -0.25919E-02 -0.35182E-02 -0.41596E-02
 -0.45105E-02 -0.45888E-02 -0.44276E-02 -0.40622E-02 -0.35282E-02 -0.28672E-02
 -0.21264E-02 -0.13526E-02 -0.59113E-03  0.10844E-03  0.69302E-03  0.11182E-02
  0.13630E-02  0.14361E-02  0.13700E-02  0.12087E-02  0.99659E-03  0.77572E-03
  0.59424E-03  0.51536E-03  0.61115E-03  0.93488E-03  0.14858E-02  0.21945E-02
  0.29468E-02  0.36371E-02  0.42122E-02  0.46741E-02  0.50451E-02  0.53293E-02
  0.55044E-02  0.55389E-02  0.54108E-02  0.51080E-02  0.46248E-02  0.39660E-02
  0.31621E-02  0.22758E-02  0.13914E-02  0.59519E-03 -0.36093E-04 -0.43833E-03
 -0.38527E-03  0.67994E-03  0.18542E-02  0.30341E-02  0.41092E-02  0.49668E-02
  0.54941E-02  0.55929E-02  0.52078E-02  0.43477E-02  0.30926E-02  0.15834E-02
 -0.60716E-05 -0.15141E-02 -0.28263E-02 -0.38805E-02 -0.46490E-02 -0.51249E-02
 -0.53195E-02 -0.52617E-02 -0.49893E-02 -0.45421E-02 -0.39606E-02 -0.32857E-02
 -0.25571E-02 -0.18130E-02 -0.10935E-02 -0.44196E-03  0.10296E-03  0.51823E-03
  0.80367E-03  0.97944E-03  0.10757E-02  0.11220E-02  0.11455E-02  0.11804E-02
  0.12793E-02  0.15101E-02  0.19313E-02  0.25570E-02  0.33329E-02  0.41478E-02
  0.48808E-02  0.54563E-02  0.58644E-02  0.61346E-02  0.62923E-02  0.63375E-02
  0.62547E-02  0.60319E-02  0.56673E-02  0.51646E-02  0.45320E-02  0.37897E-02
  0.29795E-02  0.21643E-02  0.14168E-02  0.80689E-03  0.39541E-03  0.23235E-03
  0.46419E-03  0.14539E-02  0.24972E-02  0.34949E-02  0.43439E-02  0.49369E-02
  0.51675E-02  0.49549E-02  0.42733E-02  0.31668E-02  0.17453E-02  0.16494E-03
 -0.14059E-02 -0.28263E-02 -0.40063E-02 -0.49041E-02 -0.55085E-02 -0.58276E-02
 -0.58844E-02 -0.57151E-02 -0.53633E-02 -0.48726E-02 -0.42809E-02 -0.36204E-02
 -0.29217E-02 -0.22194E-02 -0.15509E-02 -0.94849E-03 -0.43108E-03 -0.10497E-05
  0.35347E-03  0.65203E-03  0.91389E-03  0.11559E-02  0.14006E-02  0.16863E-02
  0.20670E-02  0.25947E-02  0.32906E-02  0.41210E-02  0.49943E-02  0.57909E-02
  0.64161E-02  0.68363E-02  0.70713E-02  0.71546E-02  0.71033E-02  0.69188E-02
  0.66032E-02  0.61664E-02  0.56225E-02  0.49863E-02  0.42759E-02  0.35202E-02
  0.27626E-02  0.20605E-02  0.14760E-02  0.10658E-02  0.87732E-03  0.94767E-03
  0.10687E-02  0.19555E-02  0.28502E-02  0.36606E-02  0.42871E-02  0.46258E-02
  0.45840E-02  0.41083E-02  0.32058E-02  0.19475E-02  0.45820E-03 -0.11062E-02
 -0.25919E-02 -0.38805E-02 -0.49041E-02 -0.56389E-02 -0.60881E-02 -0.62703E-02
 -0.62168E-02 -0.59701E-02 -0.55770E-02 -0.50775E-02 -0.45003E-02 -0.38693E-02
 -0.32139E-02 -0.25676E-02 -0.19577E-02 -0.13967E-02 -0.88443E-03 -0.41338E-03
  0.27259E-04  0.44944E-03  0.86515E-03  0.12906E-02  0.17530E-02  0.22895E-02
  0.29348E-02  0.37041E-02  0.45775E-02  0.54909E-02  0.63453E-02  0.70411E-02
  0.75195E-02  0.77765E-02  0.78386E-02  0.77314E-02  0.74714E-02  0.70763E-02
  0.65707E-02  0.59796E-02  0.53241E-02  0.46241E-02  0.39024E-02  0.31893E-02
  0.25260E-02  0.19639E-02  0.15561E-02  0.13482E-02  0.13766E-02  0.16692E-02
  0.14445E-02  0.22164E-02  0.29623E-02  0.35924E-02  0.40078E-02  0.41138E-02
  0.38413E-02  0.31677E-02  0.21256E-02  0.80097E-03 -0.67778E-03 -0.21626E-02
 -0.35182E-02 -0.46490E-02 -0.55085E-02 -0.60881E-02 -0.64011E-02 -0.64737E-02
 -0.63438E-02 -0.60574E-02 -0.56574E-02 -0.51743E-02 -0.46285E-02 -0.40436E-02
 -0.34489E-02 -0.28684E-02 -0.23097E-02 -0.17678E-02 -0.12359E-02 -0.70974E-03
 -0.18301E-03  0.35445E-03  0.91752E-03  0.15271E-02  0.22072E-02  0.29740E-02
  0.38267E-02  0.47444E-02  0.56842E-02  0.65763E-02  0.73343E-02  0.78850E-02
  0.81972E-02  0.82793E-02  0.81553E-02  0.78511E-02  0.73988E-02  0.68379E-02
  0.62049E-02  0.55264E-02  0.48234E-02  0.41183E-02  0.34356E-02  0.28042E-02
  0.22629E-02  0.18581E-02  0.16339E-02  0.16260E-02  0.18643E-02  0.23722E-02
  0.16286E-02  0.22895E-02  0.28964E-02  0.33585E-02  0.35829E-02  0.34934E-02
  0.30471E-02  0.22449E-02  0.11349E-02 -0.18887E-03 -0.15990E-02 -0.29603E-02
 -0.41596E-02 -0.51249E-02 -0.58276E-02 -0.62703E-02 -0.64737E-02 -0.64702E-02
 -0.63011E-02 -0.60096E-02 -0.56297E-02 -0.51824E-02 -0.46863E-02 -0.41654E-02
 -0.36408E-02 -0.31180E-02 -0.25883E-02 -0.20435E-02 -0.14821E-02 -0.90169E-03
 -0.29204E-03  0.36304E-03  0.10811E-02  0.18765E-02  0.27524E-02  0.36924E-02
  0.46650E-02  0.56322E-02  0.65463E-02  0.73428E-02  0.79501E-02  0.83186E-02
  0.84369E-02  0.83214E-02  0.80016E-02  0.75183E-02  0.69227E-02  0.62620E-02
  0.55670E-02  0.48579E-02  0.41573E-02  0.34910E-02  0.28833E-02  0.23618E-02
  0.19632E-02  0.17277E-02  0.16905E-02  0.18813E-02  0.23279E-02  0.30479E-02
  0.16714E-02  0.22350E-02  0.27186E-02  0.30349E-02  0.31050E-02  0.28725E-02
  0.23132E-02  0.14421E-02  0.31921E-03 -0.95465E-03 -0.22575E-02 -0.34726E-02
 -0.45105E-02 -0.53195E-02 -0.58844E-02 -0.62168E-02 -0.63438E-02 -0.63011E-02
 -0.61277E-02 -0.58589E-02 -0.55192E-02 -0.51252E-02 -0.46949E-02 -0.42456E-02
 -0.37826E-02 -0.32967E-02 -0.27776E-02 -0.22237E-02 -0.16341E-02 -0.99679E-03
 -0.29200E-03  0.49615E-03  0.13735E-02  0.23328E-02  0.33493E-02  0.43820E-02
  0.53861E-02  0.63196E-02  0.71340E-02  0.77686E-02  0.81693E-02  0.83125E-02
  0.82085E-02  0.78873E-02  0.73933E-02  0.67829E-02  0.61109E-02  0.54121E-02
  0.47039E-02  0.40063E-02  0.33481E-02  0.27566E-02  0.22536E-02  0.18654E-02
  0.16261E-02  0.15687E-02  0.17218E-02  0.21133E-02  0.27672E-02  0.36879E-02
  0.16310E-02  0.21184E-02  0.25054E-02  0.27148E-02  0.26813E-02  0.23603E-02
  0.17373E-02  0.84039E-03 -0.25687E-03 -0.14503E-02 -0.26298E-02 -0.36993E-02
 -0.45888E-02 -0.52617E-02 -0.57151E-02 -0.59701E-02 -0.60574E-02 -0.60096E-02
 -0.58589E-02 -0.56322E-02 -0.53478E-02 -0.50199E-02 -0.46609E-02 -0.42756E-02
 -0.38564E-02 -0.33921E-02 -0.28790E-02 -0.23157E-02 -0.16883E-02 -0.97222E-03
 -0.14956E-03  0.77835E-03  0.17939E-02  0.28665E-02  0.39518E-02  0.49974E-02
  0.59537E-02  0.67739E-02  0.74071E-02  0.78048E-02  0.79429E-02  0.78313E-02
  0.75031E-02  0.70032E-02  0.63873E-02  0.57130E-02  0.50195E-02  0.43229E-02
  0.36371E-02  0.29903E-02  0.24149E-02  0.19325E-02  0.15609E-02  0.13260E-02
  0.12591E-02  0.13866E-02  0.17334E-02  0.23250E-02  0.31740E-02  0.42662E-02
  0.15732E-02  0.20148E-02  0.23457E-02  0.24969E-02  0.24084E-02  0.20391E-02
  0.13845E-02  0.48935E-03 -0.56092E-03 -0.16650E-02 -0.27269E-02 -0.36664E-02
 -0.44276E-02 -0.49893E-02 -0.53633E-02 -0.55770E-02 -0.56574E-02 -0.56297E-02
 -0.55192E-02 -0.53478E-02 -0.51296E-02 -0.48723E-02 -0.45786E-02 -0.42430E-02
 -0.38546E-02 -0.34062E-02 -0.28943E-02 -0.23050E-02 -0.16100E-02 -0.78608E-03
  0.16419E-03  0.12141E-02  0.23261E-02  0.34538E-02  0.45392E-02  0.55192E-02
  0.63359E-02  0.69400E-02  0.72935E-02  0.73821E-02  0.72248E-02  0.68625E-02
  0.63425E-02  0.57153E-02  0.50354E-02  0.43458E-02  0.36653E-02  0.30027E-02
  0.23800E-02  0.18309E-02  0.13794E-02  0.10365E-02  0.81891E-03  0.75446E-03
  0.87002E-03  0.11860E-02  0.17241E-02  0.25024E-02  0.35173E-02  0.47399E-02
  0.15661E-02  0.20016E-02  0.23224E-02  0.24597E-02  0.23501E-02  0.19553E-02
  0.12850E-02  0.40186E-03 -0.60049E-03 -0.16247E-02 -0.25840E-02 -0.34094E-02
 -0.40622E-02 -0.45421E-02 -0.48726E-02 -0.50775E-02 -0.51743E-02 -0.51824E-02
 -0.51252E-02 -0.50199E-02 -0.48723E-02 -0.46809E-02 -0.44408E-02 -0.41426E-02
 -0.37764E-02 -0.33342E-02 -0.28022E-02 -0.21524E-02 -0.13561E-02 -0.40947E-03
  0.65913E-03  0.18052E-02  0.29774E-02  0.41100E-02  0.51208E-02  0.59292E-02
  0.64769E-02  0.67364E-02  0.67133E-02  0.64464E-02  0.59939E-02  0.54118E-02
  0.47474E-02  0.40462E-02  0.33498E-02  0.26821E-02  0.20500E-02  0.14668E-02
  0.96094E-03  0.55735E-03  0.26309E-03  0.83177E-04  0.38470E-04  0.15709E-03
  0.45863E-03  0.95803E-03  0.16731E-02  0.26118E-02  0.37561E-02  0.50689E-02
  0.16720E-02  0.21452E-02  0.24993E-02  0.26555E-02  0.25424E-02  0.21258E-02
  0.14335E-02  0.54902E-03 -0.42133E-03 -0.13779E-02 -0.22411E-02 -0.29615E-02
 -0.35282E-02 -0.39606E-02 -0.42809E-02 -0.45003E-02 -0.46285E-02 -0.46863E-02
 -0.46949E-02 -0.46609E-02 -0.45786E-02 -0.44408E-02 -0.42406E-02 -0.39683E-02
 -0.36108E-02 -0.31516E-02 -0.25646E-02 -0.18183E-02 -0.89854E-03  0.17562E-03
  0.13597E-02  0.25959E-02  0.38050E-02  0.48774E-02  0.56944E-02  0.61722E-02
  0.62879E-02  0.60755E-02  0.56072E-02  0.49705E-02  0.42429E-02  0.34788E-02
  0.27168E-02  0.19914E-02  0.13268E-02  0.72925E-03  0.20127E-03 -0.24108E-03
 -0.57660E-03 -0.79960E-03 -0.91515E-03 -0.91485E-03 -0.77309E-03 -0.46726E-03
  0.14066E-04  0.68323E-03  0.15545E-02  0.26251E-02  0.38646E-02  0.52223E-02
  0.19431E-02  0.24980E-02  0.29213E-02  0.31134E-02  0.29888E-02  0.25216E-02
  0.17702E-02  0.85468E-03 -0.94690E-04 -0.97689E-03 -0.17352E-02 -0.23584E-02
 -0.28672E-02 -0.32857E-02 -0.36204E-02 -0.38693E-02 -0.40436E-02 -0.41654E-02
 -0.42456E-02 -0.42756E-02 -0.42430E-02 -0.41426E-02 -0.39683E-02 -0.37055E-02
 -0.33328E-02 -0.28234E-02 -0.21448E-02 -0.12721E-02 -0.20662E-03  0.10189E-02
  0.23456E-02  0.36784E-02  0.48706E-02  0.57468E-02  0.61728E-02  0.61146E-02
  0.56383E-02  0.48653E-02  0.39266E-02  0.29332E-02  0.19615E-02  0.10572E-02
  0.25038E-03 -0.43861E-03 -0.10069E-02 -0.14658E-02 -0.18209E-02 -0.20647E-02
 -0.21934E-02 -0.22166E-02 -0.21394E-02 -0.19460E-02 -0.16118E-02 -0.11230E-02
 -0.47200E-03  0.35424E-03  0.13643E-02  0.25406E-02  0.38319E-02  0.51563E-02
  0.24153E-02  0.30864E-02  0.35941E-02  0.38034E-02  0.36149E-02  0.30317E-02
  0.21735E-02  0.12170E-02  0.31307E-03 -0.46129E-03 -0.11013E-02 -0.16439E-02
 -0.21264E-02 -0.25571E-02 -0.29217E-02 -0.32139E-02 -0.34489E-02 -0.36408E-02
 -0.37826E-02 -0.38564E-02 -0.38546E-02 -0.37764E-02 -0.36108E-02 -0.33328E-02
 -0.29119E-02 -0.23147E-02 -0.15074E-02 -0.46983E-03  0.78918E-03  0.22219E-02
  0.37224E-02  0.51024E-02  0.61124E-02  0.65376E-02  0.63057E-02  0.55112E-02
  0.43429E-02  0.29936E-02  0.16148E-02  0.31098E-03 -0.85219E-03 -0.18350E-02
 -0.26147E-02 -0.31896E-02 -0.35836E-02 -0.38311E-02 -0.39544E-02 -0.39624E-02
 -0.38657E-02 -0.36771E-02 -0.33944E-02 -0.29982E-02 -0.24701E-02 -0.18015E-02
 -0.98365E-03 -0.53411E-05  0.11277E-02  0.23718E-02  0.36395E-02  0.48042E-02
  0.30778E-02  0.38679E-02  0.44277E-02  0.45820E-02  0.42422E-02  0.34842E-02
  0.25189E-02  0.15732E-02  0.78037E-03  0.15265E-03 -0.37310E-03 -0.86611E-03
 -0.13526E-02 -0.18130E-02 -0.22194E-02 -0.25676E-02 -0.28684E-02 -0.31180E-02
 -0.32967E-02 -0.33921E-02 -0.34062E-02 -0.33342E-02 -0.31516E-02 -0.28234E-02
 -0.23147E-02 -0.15880E-02 -0.60383E-03  0.66111E-03  0.21867E-02  0.38707E-02
  0.54889E-02  0.67072E-02  0.72001E-02  0.68204E-02  0.56757E-02  0.40408E-02
  0.22005E-02  0.35671E-03 -0.13675E-02 -0.28924E-02 -0.41608E-02 -0.51340E-02
 -0.57979E-02 -0.61747E-02 -0.63208E-02 -0.62999E-02 -0.61551E-02 -0.59080E-02
 -0.55734E-02 -0.51587E-02 -0.46559E-02 -0.40474E-02 -0.33197E-02 -0.24652E-02
 -0.14755E-02 -0.35066E-03  0.87671E-03  0.21248E-02  0.32623E-02  0.41273E-02
  0.38326E-02  0.46907E-02  0.52170E-02  0.52203E-02  0.46746E-02  0.37662E-02
  0.27862E-02  0.19578E-02  0.13411E-02  0.86252E-03  0.41190E-03 -0.74844E-04
 -0.59113E-03 -0.10935E-02 -0.15509E-02 -0.19577E-02 -0.23097E-02 -0.25883E-02
 -0.27776E-02 -0.28790E-02 -0.28943E-02 -0.28022E-02 -0.25646E-02 -0.21448E-02
 -0.15074E-02 -0.60383E-03  0.62062E-03  0.21879E-02  0.40230E-02  0.58853E-02
  0.73612E-02  0.79932E-02  0.75157E-02  0.60152E-02  0.38603E-02  0.14670E-02
 -0.88308E-03 -0.30568E-02 -0.49865E-02 -0.66125E-02 -0.78769E-02 -0.87388E-02
 -0.91948E-02 -0.92961E-02 -0.91372E-02 -0.88123E-02 -0.83796E-02 -0.78639E-02
 -0.72754E-02 -0.66162E-02 -0.58767E-02 -0.50427E-02 -0.41040E-02 -0.30541E-02
 -0.18922E-02 -0.64007E-03  0.63495E-03  0.18109E-02  0.27242E-02  0.32090E-02
  0.45075E-02  0.53432E-02  0.57450E-02  0.55582E-02  0.48627E-02  0.39419E-02
  0.30971E-02  0.24741E-02  0.20329E-02  0.16429E-02  0.11977E-02  0.67270E-03
  0.10844E-03 -0.44196E-03 -0.94849E-03 -0.13967E-02 -0.17678E-02 -0.20435E-02
 -0.22237E-02 -0.23157E-02 -0.23050E-02 -0.21524E-02 -0.18183E-02 -0.12721E-02
 -0.46983E-03  0.66111E-03  0.21879E-02  0.40865E-02  0.61352E-02  0.78698E-02
  0.87016E-02  0.82080E-02  0.63983E-02  0.37101E-02  0.71948E-03 -0.21666E-02
 -0.47896E-02 -0.71175E-02 -0.91172E-02 -0.10725E-01 -0.11875E-01 -0.12523E-01
 -0.12683E-01 -0.12444E-01 -0.11941E-01 -0.11292E-01 -0.10559E-01 -0.97586E-02
 -0.88969E-02 -0.79735E-02 -0.69813E-02 -0.59100E-02 -0.47527E-02 -0.35076E-02
 -0.21866E-02 -0.83741E-03  0.43942E-03  0.14951E-02  0.21619E-02  0.23033E-02
  0.49608E-02  0.57001E-02  0.59550E-02  0.56529E-02  0.49707E-02  0.42128E-02
  0.36020E-02  0.31712E-02  0.28144E-02  0.24090E-02  0.18998E-02  0.13086E-02
  0.69302E-03  0.10296E-03 -0.43108E-03 -0.88443E-03 -0.12359E-02 -0.14821E-02
 -0.16341E-02 -0.16883E-02 -0.16100E-02 -0.13561E-02 -0.89854E-03 -0.20662E-03
  0.78918E-03  0.21867E-02  0.40230E-02  0.61352E-02  0.80618E-02  0.91202E-02
  0.87175E-02  0.67222E-02  0.35743E-02 -0.41507E-05 -0.34423E-02 -0.65196E-02
 -0.92384E-02 -0.11611E-01 -0.13583E-01 -0.15068E-01 -0.15995E-01 -0.16331E-01
 -0.16118E-01 -0.15490E-01 -0.14621E-01 -0.13638E-01 -0.12592E-01 -0.11491E-01
 -0.10338E-01 -0.91375E-02 -0.78849E-02 -0.65748E-02 -0.52032E-02 -0.37732E-02
 -0.23108E-02 -0.88782E-03  0.37383E-03  0.13234E-02  0.18168E-02  0.17594E-02
  0.52053E-02  0.58368E-02  0.60086E-02  0.57338E-02  0.52226E-02  0.47099E-02
  0.42969E-02  0.39372E-02  0.35330E-02  0.30250E-02  0.24198E-02  0.17661E-02
  0.11182E-02  0.51823E-03 -0.10497E-05 -0.41338E-03 -0.70974E-03 -0.90169E-03
 -0.99679E-03 -0.97222E-03 -0.78608E-03 -0.40947E-03  0.17562E-03  0.10189E-02
  0.22219E-02  0.38707E-02  0.58853E-02  0.78698E-02  0.91202E-02  0.89053E-02
  0.69090E-02  0.34808E-02 -0.57837E-03 -0.45334E-02 -0.80637E-02 -0.11185E-01
 -0.13957E-01 -0.16328E-01 -0.18187E-01 -0.19445E-01 -0.20046E-01 -0.19980E-01
 -0.19335E-01 -0.18295E-01 -0.17057E-01 -0.15736E-01 -0.14366E-01 -0.12951E-01
 -0.11502E-01 -0.10024E-01 -0.85171E-02 -0.69772E-02 -0.53999E-02 -0.37930E-02
 -0.21982E-02 -0.70509E-03  0.56256E-03  0.14753E-02  0.19207E-02  0.18328E-02
  0.54077E-02  0.59573E-02  0.61195E-02  0.59597E-02  0.56497E-02  0.53120E-02
  0.49544E-02  0.45242E-02  0.39879E-02  0.33589E-02  0.26804E-02  0.20008E-02
  0.13630E-02  0.80367E-03  0.35347E-03  0.27259E-04 -0.18301E-03 -0.29204E-03
 -0.29200E-03 -0.14956E-03  0.16419E-03  0.65913E-03  0.13597E-02  0.23456E-02
  0.37224E-02  0.54889E-02  0.73612E-02  0.87016E-02  0.87175E-02  0.69090E-02
  0.34487E-02 -0.89048E-03 -0.52536E-02 -0.91977E-02 -0.12722E-01 -0.15929E-01
 -0.18766E-01 -0.21067E-01 -0.22706E-01 -0.23629E-01 -0.23812E-01 -0.23281E-01
 -0.22178E-01 -0.20728E-01 -0.19128E-01 -0.17467E-01 -0.15768E-01 -0.14044E-01
 -0.12309E-01 -0.10571E-01 -0.88249E-02 -0.70629E-02 -0.52808E-02 -0.34969E-02
 -0.17708E-02 -0.19902E-03  0.11110E-02  0.20555E-02  0.25372E-02  0.24994E-02
  0.57147E-02  0.61635E-02  0.63023E-02  0.62133E-02  0.59980E-02  0.56857E-02
  0.52528E-02  0.46913E-02  0.40361E-02  0.33402E-02  0.26502E-02  0.20037E-02
  0.14361E-02  0.97944E-03  0.65203E-03  0.44944E-03  0.35445E-03  0.36304E-03
  0.49615E-03  0.77835E-03  0.12141E-02  0.18052E-02  0.25959E-02  0.36784E-02
  0.51024E-02  0.67072E-02  0.79932E-02  0.82080E-02  0.67222E-02  0.34808E-02
 -0.89048E-03 -0.55019E-02 -0.97837E-02 -0.13677E-01 -0.17318E-01 -0.20668E-01
 -0.23494E-01 -0.25587E-01 -0.26886E-01 -0.27388E-01 -0.27091E-01 -0.26065E-01
 -0.24506E-01 -0.22662E-01 -0.20707E-01 -0.18710E-01 -0.16697E-01 -0.14691E-01
 -0.12705E-01 -0.10733E-01 -0.87591E-02 -0.67730E-02 -0.47810E-02 -0.28225E-02
 -0.97338E-03  0.67431E-03  0.20308E-02  0.29997E-02  0.34801E-02  0.34294E-02
  0.60510E-02  0.62926E-02  0.63008E-02  0.61594E-02  0.59057E-02  0.55177E-02
  0.49818E-02  0.43364E-02  0.36481E-02  0.29721E-02  0.23450E-02  0.17999E-02
  0.13700E-02  0.10757E-02  0.91389E-03  0.86515E-03  0.91752E-03  0.10811E-02
  0.13735E-02  0.17939E-02  0.23261E-02  0.29774E-02  0.38050E-02  0.48706E-02
  0.61124E-02  0.72001E-02  0.75157E-02  0.63983E-02  0.35743E-02 -0.57837E-03
 -0.52536E-02 -0.97837E-02 -0.13995E-01 -0.18019E-01 -0.21860E-01 -0.25247E-01
 -0.27871E-01 -0.29612E-01 -0.30491E-01 -0.30519E-01 -0.29705E-01 -0.28172E-01
 -0.26170E-01 -0.23947E-01 -0.21648E-01 -0.19339E-01 -0.17062E-01 -0.14838E-01
 -0.12652E-01 -0.10472E-01 -0.82728E-02 -0.60575E-02 -0.38587E-02 -0.17441E-02
  0.19748E-03  0.18789E-02  0.32107E-02  0.40844E-02  0.44065E-02  0.41924E-02
  0.61075E-02  0.60136E-02  0.57927E-02  0.55178E-02  0.51737E-02  0.47137E-02
  0.41398E-02  0.35086E-02  0.28835E-02  0.23072E-02  0.18137E-02  0.14389E-02
  0.12087E-02  0.11220E-02  0.11559E-02  0.12906E-02  0.15271E-02  0.18765E-02
  0.23328E-02  0.28665E-02  0.34538E-02  0.41100E-02  0.48774E-02  0.57468E-02
  0.65376E-02  0.68204E-02  0.60152E-02  0.37101E-02 -0.41507E-05 -0.45334E-02
 -0.91977E-02 -0.13677E-01 -0.18019E-01 -0.22262E-01 -0.26163E-01 -0.29345E-01
 -0.31595E-01 -0.32915E-01 -0.33338E-01 -0.32846E-01 -0.31477E-01 -0.29430E-01
 -0.26994E-01 -0.24403E-01 -0.21796E-01 -0.19253E-01 -0.16818E-01 -0.14469E-01
 -0.12140E-01 -0.97694E-02 -0.73436E-02 -0.48990E-02 -0.25114E-02 -0.28086E-03
  0.16908E-02  0.33089E-02  0.44693E-02  0.50638E-02  0.50565E-02  0.45708E-02
  0.55683E-02  0.51061E-02  0.46623E-02  0.42713E-02  0.38690E-02  0.33972E-02
  0.28666E-02  0.23301E-02  0.18362E-02  0.14218E-02  0.11260E-02  0.98219E-03
  0.99659E-03  0.11455E-02  0.14006E-02  0.17530E-02  0.22072E-02  0.27524E-02
  0.33493E-02  0.39518E-02  0.45392E-02  0.51208E-02  0.56944E-02  0.61728E-02
  0.63057E-02  0.56757E-02  0.38603E-02  0.71948E-03 -0.34423E-02 -0.80637E-02
 -0.12722E-01 -0.17318E-01 -0.21860E-01 -0.26163E-01 -0.29855E-01 -0.32645E-01
 -0.34467E-01 -0.35352E-01 -0.35268E-01 -0.34183E-01 -0.32215E-01 -0.29646E-01
 -0.26787E-01 -0.23871E-01 -0.21060E-01 -0.18444E-01 -0.16010E-01 -0.13645E-01
 -0.11214E-01 -0.86514E-02 -0.59859E-02 -0.33149E-02 -0.76874E-03  0.15174E-02
  0.34242E-02  0.48446E-02  0.56748E-02  0.58552E-02  0.54601E-02  0.47296E-02
  0.43650E-02  0.36374E-02  0.30649E-02  0.26184E-02  0.22014E-02  0.17627E-02
  0.13217E-02  0.92260E-03  0.60414E-03  0.40449E-03  0.36168E-03  0.49165E-03
  0.77572E-03  0.11804E-02  0.16863E-02  0.22895E-02  0.29740E-02  0.36924E-02
  0.43820E-02  0.49974E-02  0.55192E-02  0.59292E-02  0.61722E-02  0.61146E-02
  0.55112E-02  0.40408E-02  0.14670E-02 -0.21666E-02 -0.65196E-02 -0.11185E-01
 -0.15929E-01 -0.20668E-01 -0.25247E-01 -0.29345E-01 -0.32645E-01 -0.35004E-01
 -0.36404E-01 -0.36799E-01 -0.36100E-01 -0.34337E-01 -0.31740E-01 -0.28656E-01
 -0.25421E-01 -0.22313E-01 -0.19522E-01 -0.17079E-01 -0.14827E-01 -0.12518E-01
 -0.99728E-02 -0.71729E-02 -0.42345E-02 -0.13386E-02  0.13239E-02  0.35862E-02
  0.53198E-02  0.64264E-02  0.68456E-02  0.66144E-02  0.59268E-02  0.50881E-02
  0.27032E-02  0.18633E-02  0.12457E-02  0.77058E-03  0.34854E-03 -0.42355E-04
 -0.37342E-03 -0.60825E-03 -0.71279E-03 -0.65132E-03 -0.40188E-03  0.24623E-04
  0.59424E-03  0.12793E-02  0.20670E-02  0.29348E-02  0.38267E-02  0.46650E-02
  0.53861E-02  0.59537E-02  0.63359E-02  0.64769E-02  0.62879E-02  0.56383E-02
  0.43429E-02  0.22005E-02 -0.88308E-03 -0.47896E-02 -0.92384E-02 -0.13957E-01
 -0.18766E-01 -0.23494E-01 -0.27871E-01 -0.31595E-01 -0.34467E-01 -0.36404E-01
 -0.37322E-01 -0.37094E-01 -0.35663E-01 -0.33174E-01 -0.29953E-01 -0.26411E-01
 -0.22964E-01 -0.19960E-01 -0.17540E-01 -0.15541E-01 -0.13575E-01 -0.11278E-01
 -0.85093E-02 -0.53737E-02 -0.21156E-02  0.99136E-03  0.37078E-02  0.58586E-02
  0.73361E-02  0.80887E-02  0.81378E-02  0.76251E-02  0.68194E-02  0.60138E-02