
             +---------------------------------------------------+
             |                                                   |
             |                   WANNIER90                       |
             |                                                   |
             +---------------------------------------------------+
             |                                                   |
             |        Welcome to the Maximally-Localized         |
             |        Generalized Wannier Functions code         |
             |            http://www.wannier.org                 |
             |                                                   |
             |                                                   |
             |  Wannier90 Developer Group:                       |
             |    Giovanni Pizzi    (EPFL)                       |
             |    Valerio Vitale    (Cambridge)                  |
             |    David Vanderbilt  (Rutgers University)         |
             |    Nicola Marzari    (EPFL)                       |
             |    Ivo Souza         (Universidad del Pais Vasco) |
             |    Arash A. Mostofi  (Imperial College London)    |
             |    Jonathan R. Yates (University of Oxford)       |
             |                                                   |
             |  For the full list of Wannier90 3.x authors,      |
             |  please check the code documentation and the      |
             |  README on the GitHub page of the code            |
             |                                                   |
             |                                                   |
             |  Please cite                                      |
             |                                                   |
             |  [ref] "Wannier90 as a community code:            |
             |        new features and applications",            |
             |        G. Pizzi et al., J. Phys. Cond. Matt. 32,  |
             |        165902 (2020).                             |
             |        http://doi.org/10.1088/1361-648X/ab51ff    |
             |                                                   |
             |  in any publications arising from the use of      |
             |  this code. For the method please cite            |
             |                                                   |
             |  [ref] "Maximally Localized Generalised Wannier   |
             |         Functions for Composite Energy Bands"     |
             |         N. Marzari and D. Vanderbilt              |
             |         Phys. Rev. B 56 12847 (1997)              |
             |                                                   |
             |  [ref] "Maximally Localized Wannier Functions     |
             |         for Entangled Energy Bands"               |
             |         I. Souza, N. Marzari and D. Vanderbilt    |
             |         Phys. Rev. B 65 035109 (2001)             |
             |                                                   |
             |                                                   |
             | Copyright (c) 1996-2020                           |
             |        The Wannier90 Developer Group and          |
             |        individual contributors                    |
             |                                                   |
             |      Release: 3.1.0        5th March    2020      |
             |                                                   |
             | This program is free software; you can            |
             | redistribute it and/or modify it under the terms  |
             | of the GNU General Public License as published by |
             | the Free Software Foundation; either version 2 of |
             | the License, or (at your option) any later version|
             |                                                   |
             | This program is distributed in the hope that it   |
             | will be useful, but WITHOUT ANY WARRANTY; without |
             | even the implied warranty of MERCHANTABILITY or   |
             | FITNESS FOR A PARTICULAR PURPOSE. See the GNU     |
             | General Public License for more details.          |
             |                                                   |
             | You should have received a copy of the GNU General|
             | Public License along with this program; if not,   |
             | write to the Free Software Foundation, Inc.,      |
             | 675 Mass Ave, Cambridge, MA 02139, USA.           |
             |                                                   |
             +---------------------------------------------------+
             |    Execution started on 26Jul2025 at 03:54:00     |
             +---------------------------------------------------+
 
 ******************************************************************************
 * -> Using CODATA 2006 constant values                                       *
 *    (http://physics.nist.gov/cuu/Constants/index.html)                      *
 * -> Using Bohr value from CODATA                                            *
 ******************************************************************************
 

 Running in serial (with serial executable)

                                    ------
                                    SYSTEM
                                    ------

                              Lattice Vectors (Ang)
                    a_1     4.083159  -2.260377   0.000000
                    a_2     4.083159   2.260377   0.000000
                    a_3     2.831848   0.000000   3.709734

                   Unit Cell Volume:      68.47783  (Ang^3)

                        Reciprocal-Space Vectors (Ang^-1)
                    b_1     0.769402  -1.389854  -0.587328
                    b_2     0.769402   1.389854  -0.587328
                    b_3    -0.000000   0.000000   1.693702
  
 *----------------------------------------------------------------------------*
 |   Site       Fractional Coordinate          Cartesian Coordinate (Ang)     |
 +----------------------------------------------------------------------------+
 | Bi   1   0.00000   0.00000   0.00000   |    0.00000   0.00000   0.00000    |
 | Bi   2   0.52617   0.52617   0.52617   |    5.78690   0.00000   1.95195    |
 *----------------------------------------------------------------------------*
                                ------------
                                K-POINT GRID
                                ------------
  
             Grid size =  6 x  6 x  6      Total points =  216
  
  
 *---------------------------------- MAIN ------------------------------------*
 |  Number of Wannier Functions               :                 6             |
 |  Number of Objective Wannier Functions     :                 6             |
 |  Number of input Bloch states              :                11             |
 |  Output verbosity (1=low, 5=high)          :                 1             |
 |  Timing Level (1=low, 5=high)              :                 1             |
 |  Optimisation (0=memory, 3=speed)          :                 3             |
 |  Length Unit                               :               Ang             |
 |  Post-processing setup (write *.nnkp)      :                 F             |
 |  Using Gamma-only branch of algorithms     :                 F             |
 *----------------------------------------------------------------------------*
 *------------------------------- WANNIERISE ---------------------------------*
 |  Total number of iterations                :                 0             |
 |  Number of CG steps before reset           :                 5             |
 |  Trial step length for line search         :             2.000             |
 |  Convergence tolerence                     :         0.100E-09             |
 |  Convergence window                        :                -1             |
 |  Iterations between writing output         :                 1             |
 |  Iterations between backing up to disk     :               100             |
 |  Write r^2_nm to file                      :                 F             |
 |  Write xyz WF centres to file              :                 F             |
 |  Write on-site energies <0n|H|0n> to file  :                 F             |
 |  Use guiding centre to control phases      :                 F             |
 |  Use phases for initial projections        :                 F             |
 *----------------------------------------------------------------------------*
 *------------------------------- DISENTANGLE --------------------------------*
 |  Using band disentanglement                :                 T             |
 |  Total number of iterations                :                 0             |
 |  Mixing ratio                              :             0.500             |
 |  Convergence tolerence                     :         1.000E-10             |
 |  Convergence window                        :                 3             |
 *----------------------------------------------------------------------------*
 Time to read parameters        0.043 (sec)

 *---------------------------------- K-MESH ----------------------------------*
 +----------------------------------------------------------------------------+
 |                    Distance to Nearest-Neighbour Shells                    |
 |                    ------------------------------------                    |
 |          Shell             Distance (Ang^-1)          Multiplicity         |
 |          -----             -----------------          ------------         |
 |             1                   0.270664                      2            |
 |             2                   0.282284                      6            |
 |             3                   0.322651                      6            |
 |             4                   0.449202                      6            |
 |             5                   0.463285                      6            |
 |             6                   0.524444                      6            |
 |             7                   0.536555                     12            |
 |             8                   0.541329                      2            |
 |             9                   0.542510                      6            |
 |            10                   0.564567                      6            |
 |            11                   0.645302                      6            |
 |            12                   0.685857                      6            |
 |            13                   0.699767                      6            |
 |            14                   0.712509                     12            |
 |            15                   0.713407                     12            |
 |            16                   0.730321                     12            |
 |            17                   0.769739                      6            |
 |            18                   0.794385                     12            |
 |            19                   0.802432                      6            |
 |            20                   0.811993                      2            |
 |            21                   0.827667                      6            |
 |            22                   0.839230                     12            |
 |            23                   0.846851                     12            |
 |            24                   0.898404                      6            |
 |            25                   0.926569                      6            |
 |            26                   0.934861                     12            |
 |            27                   0.941029                      6            |
 |            28                   0.948507                     12            |
 |            29                   0.965292                     12            |
 |            30                   0.967954                     12            |
 |            31                   0.968615                     12            |
 |            32                   0.981139                     12            |
 |            33                   1.010823                     12            |
 |            34                   1.027849                      6            |
 |            35                   1.029715                     12            |
 |            36                   1.048889                      6            |
 +----------------------------------------------------------------------------+
 | The b-vectors are chosen automatically                                     |
 | The following shells are used:   1,  2                                     |
 +----------------------------------------------------------------------------+
 |                        Shell   # Nearest-Neighbours                        |
 |                        -----   --------------------                        |
 |                          1               2                                 |
 |                          2               6                                 |
 +----------------------------------------------------------------------------+
 | Completeness relation is fully satisfied [Eq. (B1), PRB 56, 12847 (1997)]  |
 +----------------------------------------------------------------------------+
 |                  b_k Vectors (Ang^-1) and Weights (Ang^2)                  |
 |                  ----------------------------------------                  |
 |            No.         b_k(x)      b_k(y)      b_k(z)        w_b           |
 |            ---        --------------------------------     --------        |
 |             1         0.256467    0.000000    0.086508     5.272045        |
 |             2        -0.256467    0.000000   -0.086508     5.272045        |
 |             3         0.128234   -0.231642   -0.097888     4.659126        |
 |             4        -0.128234    0.231642    0.097888     4.659126        |
 |             5         0.128234    0.231642   -0.097888     4.659126        |
 |             6         0.000000    0.000000    0.282284     4.659126        |
 |             7        -0.128234   -0.231642    0.097888     4.659126        |
 |             8         0.000000    0.000000   -0.282284     4.659126        |
 +----------------------------------------------------------------------------+
 |                           b_k Directions (Ang^-1)                          |
 |                           -----------------------                          |
 |            No.           x           y           z                         |
 |            ---        --------------------------------                     |
 |             1         0.256467    0.000000    0.086508                     |
 |             2         0.128234   -0.231642   -0.097888                     |
 |             3         0.128234    0.231642   -0.097888                     |
 |             4         0.000000    0.000000    0.282284                     |
 +----------------------------------------------------------------------------+
  
 Time to get kmesh              0.665 (sec)
 *============================================================================*
 |                              MEMORY ESTIMATE                               |
 |         Maximum RAM allocated during each phase of the calculation         |
 *============================================================================*
 |                        Disentanglement            4.84 Mb                  |
 |                            Wannierise:            3.09 Mb                  |
 |                          plot_wannier:            3.09 Mb                  |
 *----------------------------------------------------------------------------*
  
 Starting a new Wannier90 calculation ...


 Reading overlaps from wannier90.mmn    : File generated by VASP: unknown system

 Reading projections from wannier90.amn : File generated by VASP: unknown system

 Time to read overlaps          0.260 (sec)

 *------------------------------- DISENTANGLE --------------------------------*
 +----------------------------------------------------------------------------+
 |                              Energy  Windows                               |
 |                              ---------------                               |
 |                   Outer:   -2.00000  to   11.00000  (eV)                   |
 |                   Inner:   -2.00000  to    5.00000  (eV)                   |
 +----------------------------------------------------------------------------+
   Number of target bands to extract:    6

                   Unitarised projection of Wannier functions                  
                   ------------------------------------------                  
   A_mn = <psi_m|g_n> --> S = A.A^+ --> U = S^-1/2.A
   In dis_project... done
   Using an inner window (linner = T)
   In dis_proj_froz... done

                   Extraction of optimally-connected subspace                  
                   ------------------------------------------                  
 +---------------------------------------------------------------------+<-- DIS
 |  Iter     Omega_I(i-1)      Omega_I(i)      Delta (frac.)    Time   |<-- DIS
 +---------------------------------------------------------------------+<-- DIS

     <<< Warning: Maximum number of disentanglement iterations reached >>>
          <<< Disentanglement convergence criteria not satisfied >>>

        Final Omega_I     0.00000000 (Ang^2)

 +----------------------------------------------------------------------------+

 Time to disentangle bands      0.016 (sec)

 Writing checkpoint file wannier90.chk... done


 *------------------------------- WANNIERISE ---------------------------------*
 +--------------------------------------------------------------------+<-- CONV
 | Iter  Delta Spread     RMS Gradient      Spread (Ang^2)      Time  |<-- CONV
 +--------------------------------------------------------------------+<-- CONV

 ------------------------------------------------------------------------------
 Initial State
  WF centre and spread    1  (  0.029493, -0.000000,  0.008556 )     3.34335979
  WF centre and spread    2  (  0.038105,  0.000000, -0.013046 )     3.33129667
  WF centre and spread    3  (  0.020601,  0.000000,  0.034318 )     3.34301000
  WF centre and spread    4  ( -5.240762,  0.000000, -1.766342 )     3.34335962
  WF centre and spread    5  ( -5.249374, -0.000000, -1.744740 )     3.33129650
  WF centre and spread    6  ( -5.231871, -0.000000, -1.792104 )     3.34300982
  Sum of centres and spreads (-15.633808,  0.000000, -5.273359 )    20.03533240

      0     0.200E+02     0.0000000000       20.0353329195       0.00  <-- CONV
        O_D=      0.0266358 O_OD=      0.3943280 O_TOT=     20.0353329 <-- SPRD
 ------------------------------------------------------------------------------
 Final State
  WF centre and spread    1  (  0.029493, -0.000000,  0.008556 )     3.34335979
  WF centre and spread    2  (  0.038105,  0.000000, -0.013046 )     3.33129667
  WF centre and spread    3  (  0.020601,  0.000000,  0.034318 )     3.34301000
  WF centre and spread    4  ( -5.240762,  0.000000, -1.766342 )     3.34335962
  WF centre and spread    5  ( -5.249374, -0.000000, -1.744740 )     3.33129650
  WF centre and spread    6  ( -5.231871, -0.000000, -1.792104 )     3.34300982
  Sum of centres and spreads (-15.633808,  0.000000, -5.273359 )    20.03533240

         Spreads (Ang^2)       Omega I      =    19.614369179
        ================       Omega D      =     0.026635765
                               Omega OD     =     0.394327976
    Final Spread (Ang^2)       Omega Total  =    20.035332920
 ------------------------------------------------------------------------------
 Time for wannierise            0.007 (sec)

 Writing checkpoint file wannier90.chk... done

 Time for plotting              0.000 (sec)
 Total Execution Time           1.009 (sec)

 *===========================================================================*
 |                             TIMING INFORMATION                            |
 *===========================================================================*
 |    Tag                                                Ncalls      Time (s)|
 |---------------------------------------------------------------------------|
 |kmesh: get                                        :         1         0.665|
 |overlap: allocate                                 :         1         0.000|
 |overlap: read                                     :         1         0.260|
 |dis: main                                         :         1         0.016|
 |wann: main                                        :         1         0.007|
 |plot: main                                        :         1         0.000|
 *---------------------------------------------------------------------------*

 All done: wannier90 exiting

             +---------------------------------------------------+
             |                                                   |
             |                   WANNIER90                       |
             |                                                   |
             +---------------------------------------------------+
             |                                                   |
             |        Welcome to the Maximally-Localized         |
             |        Generalized Wannier Functions code         |
             |            http://www.wannier.org                 |
             |                                                   |
             |                                                   |
             |  Wannier90 Developer Group:                       |
             |    Giovanni Pizzi    (EPFL)                       |
             |    Valerio Vitale    (Cambridge)                  |
             |    David Vanderbilt  (Rutgers University)         |
             |    Nicola Marzari    (EPFL)                       |
             |    Ivo Souza         (Universidad del Pais Vasco) |
             |    Arash A. Mostofi  (Imperial College London)    |
             |    Jonathan R. Yates (University of Oxford)       |
             |                                                   |
             |  For the full list of Wannier90 3.x authors,      |
             |  please check the code documentation and the      |
             |  README on the GitHub page of the code            |
             |                                                   |
             |                                                   |
             |  Please cite                                      |
             |                                                   |
             |  [ref] "Wannier90 as a community code:            |
             |        new features and applications",            |
             |        G. Pizzi et al., J. Phys. Cond. Matt. 32,  |
             |        165902 (2020).                             |
             |        http://doi.org/10.1088/1361-648X/ab51ff    |
             |                                                   |
             |  in any publications arising from the use of      |
             |  this code. For the method please cite            |
             |                                                   |
             |  [ref] "Maximally Localized Generalised Wannier   |
             |         Functions for Composite Energy Bands"     |
             |         N. Marzari and D. Vanderbilt              |
             |         Phys. Rev. B 56 12847 (1997)              |
             |                                                   |
             |  [ref] "Maximally Localized Wannier Functions     |
             |         for Entangled Energy Bands"               |
             |         I. Souza, N. Marzari and D. Vanderbilt    |
             |         Phys. Rev. B 65 035109 (2001)             |
             |                                                   |
             |                                                   |
             | Copyright (c) 1996-2020                           |
             |        The Wannier90 Developer Group and          |
             |        individual contributors                    |
             |                                                   |
             |      Release: 3.1.0        5th March    2020      |
             |                                                   |
             | This program is free software; you can            |
             | redistribute it and/or modify it under the terms  |
             | of the GNU General Public License as published by |
             | the Free Software Foundation; either version 2 of |
             | the License, or (at your option) any later version|
             |                                                   |
             | This program is distributed in the hope that it   |
             | will be useful, but WITHOUT ANY WARRANTY; without |
             | even the implied warranty of MERCHANTABILITY or   |
             | FITNESS FOR A PARTICULAR PURPOSE. See the GNU     |
             | General Public License for more details.          |
             |                                                   |
             | You should have received a copy of the GNU General|
             | Public License along with this program; if not,   |
             | write to the Free Software Foundation, Inc.,      |
             | 675 Mass Ave, Cambridge, MA 02139, USA.           |
             |                                                   |
             +---------------------------------------------------+
             |    Execution started on 26Jul2025 at 03:54:02     |
             +---------------------------------------------------+
 
 ******************************************************************************
 * -> Using CODATA 2006 constant values                                       *
 *    (http://physics.nist.gov/cuu/Constants/index.html)                      *
 * -> Using Bohr value from CODATA                                            *
 ******************************************************************************
 

 Running in serial (with serial executable)

                                    ------
                                    SYSTEM
                                    ------

                              Lattice Vectors (Ang)
                    a_1     4.083159  -2.260377   0.000000
                    a_2     4.083159   2.260377   0.000000
                    a_3     2.831848   0.000000   3.709734

                   Unit Cell Volume:      68.47783  (Ang^3)

                        Reciprocal-Space Vectors (Ang^-1)
                    b_1     0.769402  -1.389854  -0.587328
                    b_2     0.769402   1.389854  -0.587328
                    b_3    -0.000000   0.000000   1.693702
  
 *----------------------------------------------------------------------------*
 |   Site       Fractional Coordinate          Cartesian Coordinate (Ang)     |
 +----------------------------------------------------------------------------+
 | Bi   1   0.00000   0.00000   0.00000   |    0.00000   0.00000   0.00000    |
 | Bi   2   0.52617   0.52617   0.52617   |    5.78690   0.00000   1.95195    |
 *----------------------------------------------------------------------------*
                                ------------
                                K-POINT GRID
                                ------------
  
             Grid size =  6 x  6 x  6      Total points =  216
  
  
 *---------------------------------- MAIN ------------------------------------*
 |  Number of Wannier Functions               :                 6             |
 |  Number of Objective Wannier Functions     :                 6             |
 |  Number of input Bloch states              :                11             |
 |  Output verbosity (1=low, 5=high)          :                 1             |
 |  Timing Level (1=low, 5=high)              :                 1             |
 |  Optimisation (0=memory, 3=speed)          :                 3             |
 |  Length Unit                               :               Ang             |
 |  Post-processing setup (write *.nnkp)      :                 F             |
 |  Using Gamma-only branch of algorithms     :                 F             |
 |  Wavefunction (UNK) file-type              :       unformatted             |
 |  Wavefunction spin channel                 :                up             |
 *----------------------------------------------------------------------------*
 *------------------------------- WANNIERISE ---------------------------------*
 |  Total number of iterations                :                 0             |
 |  Number of CG steps before reset           :                 5             |
 |  Trial step length for line search         :             2.000             |
 |  Convergence tolerence                     :         0.100E-09             |
 |  Convergence window                        :                -1             |
 |  Iterations between writing output         :                 1             |
 |  Iterations between backing up to disk     :               100             |
 |  Write r^2_nm to file                      :                 F             |
 |  Write xyz WF centres to file              :                 F             |
 |  Write on-site energies <0n|H|0n> to file  :                 F             |
 |  Use guiding centre to control phases      :                 F             |
 |  Use phases for initial projections        :                 F             |
 *----------------------------------------------------------------------------*
 *------------------------------- DISENTANGLE --------------------------------*
 |  Using band disentanglement                :                 T             |
 |  Total number of iterations                :                 0             |
 |  Mixing ratio                              :             0.500             |
 |  Convergence tolerence                     :         1.000E-10             |
 |  Convergence window                        :                 3             |
 *----------------------------------------------------------------------------*
 *-------------------------------- PLOTTING ----------------------------------*
 |  Plotting Wannier functions                :                 T             |
 |   Size of supercell for plotting           :     2x    2x    2             |
 |   Plotting mode (molecule or crystal)      :           crystal             |
 |   Plotting format                          :          xcrysden             |
 *----------------------------------------------------------------------------*
 |  Plotting interpolated bandstructure       :                 T             |
 |   Number of K-path sections                :                 9             |
 |   Divisions along first K-path section     :                40             |
 |   Output format                            :          gnuplot              |
 |   Output mode                              :               s-k             |
 *----------------------------------------------------------------------------*
 |   K-space path sections:                                                   |
 |    From: G       0.000  0.000  0.000     To: L       0.500  0.000  0.000   |
 |    From: L       0.500  0.000  0.000     To: B1      0.500  0.242 -0.242   |
 |    From: B       0.758  0.500  0.242     To: Z       0.500  0.500  0.500   |
 |    From: Z       0.500  0.500  0.500     To: G       0.000  0.000  0.000   |
 |    From: G       0.000  0.000  0.000     To: X       0.371  0.000 -0.371   |
 |    From: Q       0.629  0.371  0.000     To: F       0.500  0.500  0.000   |
 |    From: F       0.500  0.500  0.000     To: P1      0.629  0.629  0.242   |
 |    From: P1      0.629  0.629  0.242     To: Z       0.500  0.500  0.500   |
 |    From: L       0.500  0.000  0.000     To: P       0.758  0.371  0.371   |
 *----------------------------------------------------------------------------*
 |  Plotting Hamiltonian in WF basis          :                 T             |
 *----------------------------------------------------------------------------*
 Time to read parameters        0.023 (sec)

 *---------------------------------- K-MESH ----------------------------------*
 +----------------------------------------------------------------------------+
 |                    Distance to Nearest-Neighbour Shells                    |
 |                    ------------------------------------                    |
 |          Shell             Distance (Ang^-1)          Multiplicity         |
 |          -----             -----------------          ------------         |
 |             1                   0.270664                      2            |
 |             2                   0.282284                      6            |
 |             3                   0.322651                      6            |
 |             4                   0.449202                      6            |
 |             5                   0.463285                      6            |
 |             6                   0.524444                      6            |
 |             7                   0.536555                     12            |
 |             8                   0.541329                      2            |
 |             9                   0.542510                      6            |
 |            10                   0.564567                      6            |
 |            11                   0.645302                      6            |
 |            12                   0.685857                      6            |
 |            13                   0.699767                      6            |
 |            14                   0.712509                     12            |
 |            15                   0.713407                     12            |
 |            16                   0.730321                     12            |
 |            17                   0.769739                      6            |
 |            18                   0.794385                     12            |
 |            19                   0.802432                      6            |
 |            20                   0.811993                      2            |
 |            21                   0.827667                      6            |
 |            22                   0.839230                     12            |
 |            23                   0.846851                     12            |
 |            24                   0.898404                      6            |
 |            25                   0.926569                      6            |
 |            26                   0.934861                     12            |
 |            27                   0.941029                      6            |
 |            28                   0.948507                     12            |
 |            29                   0.965292                     12            |
 |            30                   0.967954                     12            |
 |            31                   0.968615                     12            |
 |            32                   0.981139                     12            |
 |            33                   1.010823                     12            |
 |            34                   1.027849                      6            |
 |            35                   1.029715                     12            |
 |            36                   1.048889                      6            |
 +----------------------------------------------------------------------------+
 | The b-vectors are chosen automatically                                     |
 | The following shells are used:   1,  2                                     |
 +----------------------------------------------------------------------------+
 |                        Shell   # Nearest-Neighbours                        |
 |                        -----   --------------------                        |
 |                          1               2                                 |
 |                          2               6                                 |
 +----------------------------------------------------------------------------+
 | Completeness relation is fully satisfied [Eq. (B1), PRB 56, 12847 (1997)]  |
 +----------------------------------------------------------------------------+
 |                  b_k Vectors (Ang^-1) and Weights (Ang^2)                  |
 |                  ----------------------------------------                  |
 |            No.         b_k(x)      b_k(y)      b_k(z)        w_b           |
 |            ---        --------------------------------     --------        |
 |             1         0.256467    0.000000    0.086508     5.272045        |
 |             2        -0.256467    0.000000   -0.086508     5.272045        |
 |             3         0.128234   -0.231642   -0.097888     4.659126        |
 |             4        -0.128234    0.231642    0.097888     4.659126        |
 |             5         0.128234    0.231642   -0.097888     4.659126        |
 |             6         0.000000    0.000000    0.282284     4.659126        |
 |             7        -0.128234   -0.231642    0.097888     4.659126        |
 |             8         0.000000    0.000000   -0.282284     4.659126        |
 +----------------------------------------------------------------------------+
 |                           b_k Directions (Ang^-1)                          |
 |                           -----------------------                          |
 |            No.           x           y           z                         |
 |            ---        --------------------------------                     |
 |             1         0.256467    0.000000    0.086508                     |
 |             2         0.128234   -0.231642   -0.097888                     |
 |             3         0.128234    0.231642   -0.097888                     |
 |             4         0.000000    0.000000    0.282284                     |
 +----------------------------------------------------------------------------+
  
 Time to get kmesh              0.577 (sec)
 *============================================================================*
 |                              MEMORY ESTIMATE                               |
 |         Maximum RAM allocated during each phase of the calculation         |
 *============================================================================*
 |                        Disentanglement            4.84 Mb                  |
 |                            Wannierise:            3.09 Mb                  |
 |                          plot_wannier:            3.09 Mb                  |
 *----------------------------------------------------------------------------*
  
 Reading restart information from file wannier90.chk :
 written on 26Jul2025 at 03:54:02 ... done

 Restarting Wannier90 from plotting routines ...

 *---------------------------------------------------------------------------*
 |                               PLOTTING                                    |
 *---------------------------------------------------------------------------*

 !!!! Kpoint grid does not include Gamma.  Interpolation may be incorrect. !!!!

 Calculating interpolated band-structure

 Time to calculate interpolated band structure       0.270 (sec)

      Wannier Function Num:    1       Maximum Im/Re Ratio =    0.000273
      Wannier Function Num:    2       Maximum Im/Re Ratio =    0.000505
      Wannier Function Num:    3       Maximum Im/Re Ratio =    0.000210
      Wannier Function Num:    4       Maximum Im/Re Ratio =    0.000237
      Wannier Function Num:    5       Maximum Im/Re Ratio =    0.000552
      Wannier Function Num:    6       Maximum Im/Re Ratio =    0.000214
  
 Time for plotting             14.435 (sec)
 Total Execution Time          15.037 (sec)

 *===========================================================================*
 |                             TIMING INFORMATION                            |
 *===========================================================================*
 |    Tag                                                Ncalls      Time (s)|
 |---------------------------------------------------------------------------|
 |kmesh: get                                        :         1         0.577|
 |plot: main                                        :         1        14.435|
 *---------------------------------------------------------------------------*

 All done: wannier90 exiting
            Distance to Nearest-Neighbour Shells                    |
 |                    ------------------------------------                    |
 |          Shell             Distance (Ang^-1)          Multiplicity         |
 |          -----             -----------------          ------------         |
 |             1                   0.270664                      2            |
 |             2                   0.282284                      6            |
 |             3                   0.322651                      6            |
 |             4                   0.449202                      6            |
 |             5                   0.463285                      6            |
 |             6                   0.524444                      6            |
 |             7                   0.536555                     12            |
 |             8                   0.541329                      2            |
 |             9                   0.542510                      6            |
 |            10                   0.564567                      6            |
 |            11                   0.645302                      6            |
 |            12                   0.685857                      6            |
 |            13                   0.699767                      6            |
 |            14                   0.712509                     12            |
 |            15                   0.713407                     12            |
 |            16                   0.730321                     12            |
 |            17                   0.769739                      6            |
 |            18                   0.794385                     12            |
 |            19                   0.802432                      6            |
 |            20                   0.811993                      2            |
 |            21                   0.827667                      6            |
 |            22                   0.839230                     12            |
 |            23                   0.846851                     12            |
 |            24                   0.898404                      6            |
 |            25                   0.926569                      6            |
 |            26                   0.934861                     12            |
 |            27                   0.941029                      6            |
 |            28                   0.948507                     12            |
 |            29                   0.965292                     12            |
 |            30                   0.967954                     12            |
 |            31                   0.968615                     12            |
 |            32                   0.981139                     12            |
 |            33                   1.010823                     12            |
 |            34                   1.027849                      6            |
 |            35                   1.029715                     12            |
 |            36                   1.048889                      6            |
 +----------------------------------------------------------------------------+
 | The b-vectors are chosen automatically                                     |
 | The following shells are used:   1,  2                                     |
 +----------------------------------------------------------------------------+
 |                        Shell   # Nearest-Neighbours                        |
 |                        -----   --------------------                        |
 |                          1               2                                 |
 |                          2               6                                 |
 +----------------------------------------------------------------------------+
 | Completeness relation is fully satisfied [Eq. (B1), PRB 56, 12847 (1997)]  |
 +----------------------------------------------------------------------------+
 |                  b_k Vectors (Ang^-1) and Weights (Ang^2)                  |
 |                  ----------------------------------------                  |
 |            No.         b_k(x)      b_k(y)      b_k(z)        w_b           |
 |            ---        --------------------------------     --------        |
 |             1         0.256467    0.000000    0.086508     5.272045        |
 |             2        -0.256467    0.000000   -0.086508     5.272045        |
 |             3         0.128234   -0.231642   -0.097888     4.659126        |
 |             4        -0.128234    0.231642    0.097888     4.659126        |
 |             5         0.128234    0.231642   -0.097888     4.659126        |
 |             6         0.000000    0.000000    0.282284     4.659126        |
 |             7        -0.128234   -0.231642    0.097888     4.659126        |
 |             8         0.000000    0.000000   -0.282284     4.659126        |
 +----------------------------------------------------------------------------+
 |                           b_k Directions (Ang^-1)                          |
 |                           -----------------------                          |
 |            No.           x           y           z                         |
 |            ---        --------------------------------                     |
 |             1         0.256467    0.000000    0.086508                     |
 |             2         0.128234   -0.231642   -0.097888                     |
 |             3         0.128234    0.231642   -0.097888                     |
 |             4         0.000000    0.000000    0.282284                     |
 +----------------------------------------------------------------------------+
  
 Time to get kmesh              0.631 (sec)
 *============================================================================*
 |                              MEMORY ESTIMATE                               |
 |         Maximum RAM allocated during each phase of the calculation         |
 *============================================================================*
 |                        Disentanglement            4.84 Mb                  |
 |                            Wannierise:            3.09 Mb                  |
 |                          plot_wannier:            3.09 Mb                  |
 *----------------------------------------------------------------------------*
  
 Reading restart information from file wannier90.chk :
 written on 26Jul2025 at 03:54:02 ... done

 Restarting Wannier90 from plotting routines ...

 *---------------------------------------------------------------------------*
 |                               PLOTTING                                    |
 *---------------------------------------------------------------------------*

 !!!! Kpoint grid does not include Gamma.  Interpolation may be incorrect. !!!!

 Calculating interpolated band-structure

 Time to calculate interpolated band structure       0.272 (sec)

      Wannier Function Num:    1       Maximum Im/Re Ratio =    0.000273
      Wannier Function Num:    2       Maximum Im/Re Ratio =    0.000505
      Wannier Function Num:    3       Maximum Im/Re Ratio =    0.000210
      Wannier Function Num:    4       Maximum Im/Re Ratio =    0.000237
      Wannier Function Num:    5       Maximum Im/Re Ratio =    0.000552
      Wannier Function Num:    6       Maximum Im/Re Ratio =    0.000214
  
 Time for plotting             14.437 (sec)
 Total Execution Time          15.102 (sec)

 *===========================================================================*
 |                             TIMING INFORMATION                            |
 *===========================================================================*
 |    Tag                                                Ncalls      Time (s)|
 |---------------------------------------------------------------------------|
 |kmesh: get                                        :         1         0.631|
 |plot: main                                        :         1        14.437|
 *---------------------------------------------------------------------------*

 All done: wannier90 exiting
            Distance to Nearest-Neighbour Shells                    |
 |                    ------------------------------------                    |
 |          Shell             Distance (Ang^-1)          Multiplicity         |
 |          -----             -----------------          ------------         |
 |             1                   0.270664                      2            |
 |             2                   0.282284                      6            |
 |             3                   0.322651                      6            |
 |             4                   0.449202                      6            |
 |             5                   0.463285                      6            |
 |             6                   0.524444                      6            |
 |             7                   0.536555                     12            |
 |             8                   0.541329                      2            |
 |             9                   0.542510                      6            |
 |            10                   0.564567                      6            |
 |            11                   0.645302                      6            |
 |            12                   0.685857                      6            |
 |            13                   0.699767                      6            |
 |            14                   0.712509                     12            |
 |            15                   0.713407                     12            |
 |            16                   0.730321                     12            |
 |            17                   0.769739                      6            |
 |            18                   0.794385                     12            |
 |            19                   0.802432                      6            |
 |            20                   0.811993                      2            |
 |            21                   0.827667                      6            |
 |            22                   0.839230                     12            |
 |            23                   0.846851                     12            |
 |            24                   0.898404                      6            |
 |            25                   0.926569                      6            |
 |            26                   0.934861                     12            |
 |            27                   0.941029                      6            |
 |            28                   0.948507                     12            |
 |            29                   0.965292                     12            |
 |            30                   0.967954                     12            |
 |            31                   0.968615                     12            |
 |            32                   0.981139                     12            |
 |            33                   1.010823                     12            |
 |            34                   1.027849                      6            |
 |            35                   1.029715                     12            |
 |            36                   1.048889                      6            |
 +----------------------------------------------------------------------------+
 | The b-vectors are chosen automatically                                     |
 | The following shells are used:   1,  2                                     |
 +----------------------------------------------------------------------------+
 |                        Shell   # Nearest-Neighbours                        |
 |                        -----   --------------------                        |
 |                          1               2                                 |
 |                          2               6                                 |
 +----------------------------------------------------------------------------+
 | Completeness relation is fully satisfied [Eq. (B1), PRB 56, 12847 (1997)]  |
 +----------------------------------------------------------------------------+
 |                  b_k Vectors (Ang^-1) and Weights (Ang^2)                  |
 |                  ----------------------------------------                  |
 |            No.         b_k(x)      b_k(y)      b_k(z)        w_b           |
 |            ---        --------------------------------     --------        |
 |             1         0.256467    0.000000    0.086508     5.272045        |
 |             2        -0.256467    0.000000   -0.086508     5.272045        |
 |             3         0.128234   -0.231642   -0.097888     4.659126        |
 |             4        -0.128234    0.231642    0.097888     4.659126        |
 |             5         0.128234    0.231642   -0.097888     4.659126        |
 |             6         0.000000    0.000000    0.282284     4.659126        |
 |             7        -0.128234   -0.231642    0.097888     4.659126        |
 |             8         0.000000    0.000000   -0.282284     4.659126        |
 +----------------------------------------------------------------------------+
 |                           b_k Directions (Ang^-1)                          |
 |                           -----------------------                          |
 |            No.           x           y           z                         |
 |            ---        --------------------------------                     |
 |             1         0.256467    0.000000    0.086508                     |
 |             2         0.128234   -0.231642   -0.097888                     |
 |             3         0.128234    0.231642   -0.097888                     |
 |             4         0.000000    0.000000    0.282284                     |
 +----------------------------------------------------------------------------+
  
 Time to get kmesh              0.659 (sec)
 *============================================================================*
 |                              MEMORY ESTIMATE                               |
 |         Maximum RAM allocated during each phase of the calculation         |
 *============================================================================*
 |                        Disentanglement            4.84 Mb                  |
 |                            Wannierise:            3.09 Mb                  |
 |                          plot_wannier:            3.09 Mb                  |
 *----------------------------------------------------------------------------*
  
 Reading restart information from file wannier90.chk :
 written on 26Jul2025 at 03:54:02 ... done

 Restarting Wannier90 from plotting routines ...

 *---------------------------------------------------------------------------*
 |                               PLOTTING                                    |
 *---------------------------------------------------------------------------*

 !!!! Kpoint grid does not include Gamma.  Interpolation may be incorrect. !!!!

 Calculating interpolated band-structure

 Time to calculate interpolated band structure       0.304 (sec)

      Wannier Function Num:    1       Maximum Im/Re Ratio =    0.000273
      Wannier Function Num:    2       Maximum Im/Re Ratio =    0.000505
      Wannier Function Num:    3       Maximum Im/Re Ratio =    0.000210
      Wannier Function Num:    4       Maximum Im/Re Ratio =    0.000237
      Wannier Function Num:    5       Maximum Im/Re Ratio =    0.000552
      Wannier Function Num:    6       Maximum Im/Re Ratio =    0.000214
  
 Time for plotting             14.709 (sec)
 Total Execution Time          15.413 (sec)

 *===========================================================================*
 |                             TIMING INFORMATION                            |
 *===========================================================================*
 |    Tag                                                Ncalls      Time (s)|
 |---------------------------------------------------------------------------|
 |kmesh: get                                        :         1         0.659|
 |plot: main                                        :         1        14.709|
 *---------------------------------------------------------------------------*

 All done: wannier90 exiting
            Distance to Nearest-Neighbour Shells                    |
 |                    ------------------------------------                    |
 |          Shell             Distance (Ang^-1)          Multiplicity         |
 |          -----             -----------------          ------------         |
 |             1                   0.270664                      2            |
 |             2                   0.282284                      6            |
 |             3                   0.322651                      6            |
 |             4                   0.449202                      6            |
 |             5                   0.463285                      6            |
 |             6                   0.524444                      6            |
 |             7                   0.536555                     12            |
 |             8                   0.541329                      2            |
 |             9                   0.542510                      6            |
 |            10                   0.564567                      6            |
 |            11                   0.645302                      6            |
 |            12                   0.685857                      6            |
 |            13                   0.699767                      6            |
 |            14                   0.712509                     12            |
 |            15                   0.713407                     12            |
 |            16                   0.730321                     12            |
 |            17                   0.769739                      6            |
 |            18                   0.794385                     12            |
 |            19                   0.802432                      6            |
 |            20                   0.811993                      2            |
 |            21                   0.827667                      6            |
 |            22                   0.839230                     12            |
 |            23                   0.846851                     12            |
 |            24                   0.898404                      6            |
 |            25                   0.926569                      6            |
 |            26                   0.934861                     12            |
 |            27                   0.941029                      6            |
 |            28                   0.948507                     12            |
 |            29                   0.965292                     12            |
 |            30                   0.967954                     12            |
 |            31                   0.968615                     12            |
 |            32                   0.981139                     12            |
 |            33                   1.010823                     12            |
 |            34                   1.027849                      6            |
 |            35                   1.029715                     12            |
 |            36                   1.048889                      6            |
 +----------------------------------------------------------------------------+
 | The b-vectors are chosen automatically                                     |
 | The following shells are used:   1,  2                                     |
 +----------------------------------------------------------------------------+
 |                        Shell   # Nearest-Neighbours                        |
 |                        -----   --------------------                        |
 |                          1               2                                 |
 |                          2               6                                 |
 +----------------------------------------------------------------------------+
 | Completeness relation is fully satisfied [Eq. (B1), PRB 56, 12847 (1997)]  |
 +----------------------------------------------------------------------------+
 |                  b_k Vectors (Ang^-1) and Weights (Ang^2)                  |
 |                  ----------------------------------------                  |
 |            No.         b_k(x)      b_k(y)      b_k(z)        w_b           |
 |            ---        --------------------------------     --------        |
 |             1         0.256467    0.000000    0.086508     5.272045        |
 |             2        -0.256467    0.000000   -0.086508     5.272045        |
 |             3         0.128234   -0.231642   -0.097888     4.659126        |
 |             4        -0.128234    0.231642    0.097888     4.659126        |
 |             5         0.128234    0.231642   -0.097888     4.659126        |
 |             6         0.000000    0.000000    0.282284     4.659126        |
 |             7        -0.128234   -0.231642    0.097888     4.659126        |
 |             8         0.000000    0.000000   -0.282284     4.659126        |
 +----------------------------------------------------------------------------+
 |                           b_k Directions (Ang^-1)                          |
 |                           -----------------------                          |
 |            No.           x           y           z                         |
 |            ---        --------------------------------                     |
 |             1         0.256467    0.000000    0.086508                     |
 |             2         0.128234   -0.231642   -0.097888                     |
 |             3         0.128234    0.231642   -0.097888                     |
 |             4         0.000000    0.000000    0.282284                     |
 +----------------------------------------------------------------------------+
  
 Time to get kmesh              0.659 (sec)
 *============================================================================*
 |                              MEMORY ESTIMATE                               |
 |         Maximum RAM allocated during each phase of the calculation         |
 *============================================================================*
 |                        Disentanglement            4.84 Mb                  |
 |                            Wannierise:            3.09 Mb                  |
 |                          plot_wannier:            3.09 Mb                  |
 *----------------------------------------------------------------------------*
  
 Reading restart information from file wannier90.chk :
 written on 26Jul2025 at 03:54:02 ... done

 Restarting Wannier90 from plotting routines ...

 *---------------------------------------------------------------------------*
 |                               PLOTTING                                    |
 *---------------------------------------------------------------------------*

 !!!! Kpoint grid does not include Gamma.  Interpolation may be incorrect. !!!!

 Calculating interpolated band-structure

 Time to calculate interpolated band structure       0.303 (sec)

      Wannier Function Num:    1       Maximum Im/Re Ratio =    0.000273
      Wannier Function Num:    2       Maximum Im/Re Ratio =    0.000505
      Wannier Function Num:    3       Maximum Im/Re Ratio =    0.000210
      Wannier Function Num:    4       Maximum Im/Re Ratio =    0.000237
      Wannier Function Num:    5       Maximum Im/Re Ratio =    0.000552
      Wannier Function Num:    6       Maximum Im/Re Ratio =    0.000214
  
 Time for plotting             14.740 (sec)
 Total Execution Time          15.443 (sec)

 *===========================================================================*
 |                             TIMING INFORMATION                            |
 *===========================================================================*
 |    Tag                                                Ncalls      Time (s)|
 |---------------------------------------------------------------------------|
 |kmesh: get                                        :         1         0.659|
 |plot: main                                        :         1        14.740|
 *---------------------------------------------------------------------------*

 All done: wannier90 exiting
            Distance to Nearest-Neighbour Shells                    |
 |                    ------------------------------------                    |
 |          Shell             Distance (Ang^-1)          Multiplicity         |
 |          -----             -----------------          ------------         |
 |             1                   0.270664                      2            |
 |             2                   0.282284                      6            |
 |             3                   0.322651                      6            |
 |             4                   0.449202                      6            |
 |             5                   0.463285                      6            |
 |             6                   0.524444                      6            |
 |             7                   0.536555                     12            |
 |             8                   0.541329                      2            |
 |             9                   0.542510                      6            |
 |            10                   0.564567                      6            |
 |            11                   0.645302                      6            |
 |            12                   0.685857                      6            |
 |            13                   0.699767                      6            |
 |            14                   0.712509                     12            |
 |            15                   0.713407                     12            |
 |            16                   0.730321                     12            |
 |            17                   0.769739                      6            |
 |            18                   0.794385                     12            |
 |            19                   0.802432                      6            |
 |            20                   0.811993                      2            |
 |            21                   0.827667                      6            |
 |            22                   0.839230                     12            |
 |            23                   0.846851                     12            |
 |            24                   0.898404                      6            |
 |            25                   0.926569                      6            |
 |            26                   0.934861                     12            |
 |            27                   0.941029                      6            |
 |            28                   0.948507                     12            |
 |            29                   0.965292                     12            |
 |            30                   0.967954                     12            |
 |            31                   0.968615                     12            |
 |            32                   0.981139                     12            |
 |            33                   1.010823                     12            |
 |            34                   1.027849                      6            |
 |            35                   1.029715                     12            |
 |            36                   1.048889                      6            |
 +----------------------------------------------------------------------------+
 | The b-vectors are chosen automatically                                     |
 | The following shells are used:   1,  2                                     |
 +----------------------------------------------------------------------------+
 |                        Shell   # Nearest-Neighbours                        |
 |                        -----   --------------------                        |
 |                          1               2                                 |
 |                          2               6                                 |
 +----------------------------------------------------------------------------+
 | Completeness relation is fully satisfied [Eq. (B1), PRB 56, 12847 (1997)]  |
 +----------------------------------------------------------------------------+
 |                  b_k Vectors (Ang^-1) and Weights (Ang^2)                  |
 |                  ----------------------------------------                  |
 |            No.         b_k(x)      b_k(y)      b_k(z)        w_b           |
 |            ---        --------------------------------     --------        |
 |             1         0.256467    0.000000    0.086508     5.272045        |
 |             2        -0.256467    0.000000   -0.086508     5.272045        |
 |             3         0.128234   -0.231642   -0.097888     4.659126        |
 |             4        -0.128234    0.231642    0.097888     4.659126        |
 |             5         0.128234    0.231642   -0.097888     4.659126        |
 |             6         0.000000    0.000000    0.282284     4.659126        |
 |             7        -0.128234   -0.231642    0.097888     4.659126        |
 |             8         0.000000    0.000000   -0.282284     4.659126        |
 +----------------------------------------------------------------------------+
 |                           b_k Directions (Ang^-1)                          |
 |                           -----------------------                          |
 |            No.           x           y           z                         |
 |            ---        --------------------------------                     |
 |             1         0.256467    0.000000    0.086508                     |
 |             2         0.128234   -0.231642   -0.097888                     |
 |             3         0.128234    0.231642   -0.097888                     |
 |             4         0.000000    0.000000    0.282284                     |
 +----------------------------------------------------------------------------+
  
 Time to get kmesh              0.658 (sec)
 *============================================================================*
 |                              MEMORY ESTIMATE                               |
 |         Maximum RAM allocated during each phase of the calculation         |
 *============================================================================*
 |                        Disentanglement            4.84 Mb                  |
 |                            Wannierise:            3.09 Mb                  |
 |                          plot_wannier:            3.09 Mb                  |
 *----------------------------------------------------------------------------*
  
 Reading restart information from file wannier90.chk :
 written on 26Jul2025 at 03:54:02 ... done

 Restarting Wannier90 from plotting routines ...

 *---------------------------------------------------------------------------*
 |                               PLOTTING                                    |
 *---------------------------------------------------------------------------*

 !!!! Kpoint grid does not include Gamma.  Interpolation may be incorrect. !!!!

 Calculating interpolated band-structure

 Time to calculate interpolated band structure       0.413 (sec)

      Wannier Function Num:    1       Maximum Im/Re Ratio =    0.000273
      Wannier Function Num:    2       Maximum Im/Re Ratio =    0.000505
      Wannier Function Num:    3       Maximum Im/Re Ratio =    0.000210
      Wannier Function Num:    4       Maximum Im/Re Ratio =    0.000237
      Wannier Function Num:    5       Maximum Im/Re Ratio =    0.000552
      Wannier Function Num:    6       Maximum Im/Re Ratio =    0.000214
  
 Time for plotting             14.857 (sec)
 Total Execution Time          15.560 (sec)

 *===========================================================================*
 |                             TIMING INFORMATION                            |
 *===========================================================================*
 |    Tag                                                Ncalls      Time (s)|
 |---------------------------------------------------------------------------|
 |kmesh: get                                        :         1         0.658|
 |plot: main                                        :         1        14.857|
 *---------------------------------------------------------------------------*

 All done: wannier90 exiting
            Distance to Nearest-Neighbour Shells                    |
 |                    ------------------------------------                    |
 |          Shell             Distance (Ang^-1)          Multiplicity         |
 |          -----             -----------------          ------------         |
 |             1                   0.270664                      2            |
 |             2                   0.282284                      6            |
 |             3                   0.322651                      6            |
 |             4                   0.449202                      6            |
 |             5                   0.463285                      6            |
 |             6                   0.524444                      6            |
 |             7                   0.536555                     12            |
 |             8                   0.541329                      2            |
 |             9                   0.542510                      6            |
 |            10                   0.564567                      6            |
 |            11                   0.645302                      6            |
 |            12                   0.685857                      6            |
 |            13                   0.699767                      6            |
 |            14                   0.712509                     12            |
 |            15                   0.713407                     12            |
 |            16                   0.730321                     12            |
 |            17                   0.769739                      6            |
 |            18                   0.794385                     12            |
 |            19                   0.802432                      6            |
 |            20                   0.811993                      2            |
 |            21                   0.827667                      6            |
 |            22                   0.839230                     12            |
 |            23                   0.846851                     12            |
 |            24                   0.898404                      6            |
 |            25                   0.926569                      6            |
 |            26                   0.934861                     12            |
 |            27                   0.941029                      6            |
 |            28                   0.948507                     12            |
 |            29                   0.965292                     12            |
 |            30                   0.967954                     12            |
 |            31                   0.968615                     12            |
 |            32                   0.981139                     12            |
 |            33                   1.010823                     12            |
 |            34                   1.027849                      6            |
 |            35                   1.029715                     12            |
 |            36                   1.048889                      6            |
 +----------------------------------------------------------------------------+
 | The b-vectors are chosen automatically                                     |
 | The following shells are used:   1,  2                                     |
 +----------------------------------------------------------------------------+
 |                        Shell   # Nearest-Neighbours                        |
 |                        -----   --------------------                        |
 |                          1               2                                 |
 |                          2               6                                 |
 +----------------------------------------------------------------------------+
 | Completeness relation is fully satisfied [Eq. (B1), PRB 56, 12847 (1997)]  |
 +----------------------------------------------------------------------------+
 |                  b_k Vectors (Ang^-1) and Weights (Ang^2)                  |
 |                  ----------------------------------------                  |
 |            No.         b_k(x)      b_k(y)      b_k(z)        w_b           |
 |            ---        --------------------------------     --------        |
 |             1         0.256467    0.000000    0.086508     5.272045        |
 |             2        -0.256467    0.000000   -0.086508     5.272045        |
 |             3         0.128234   -0.231642   -0.097888     4.659126        |
 |             4        -0.128234    0.231642    0.097888     4.659126        |
 |             5         0.128234    0.231642   -0.097888     4.659126        |
 |             6         0.000000    0.000000    0.282284     4.659126        |
 |             7        -0.128234   -0.231642    0.097888     4.659126      |    |             8         0.000000    0.000000   -0.282284     4.659126        |
 +----------------------------------------------------------------------------+
 |                           b_k Directions (Ang^-1)                          |
 |                           -----------------------                          |
 |            No.           x           y           z                         |
 |            ---        --------------------------------                     |
 |             1         0.256467    0.000000    0.086508                     |
 |             2         0.128234   -0.231642   -0.097888                     |
 |             3         0.128234    0.231642   -0.097888                     |
[...]
 +----------------------------------------------------------------------------+
 |                           b_k Directions (Ang^-1)                          |
 |                           -----------------------                          |
 |            No.           x           y           z                         |
 |            ---        --------------------------------                     |
 |             1         0.256467    0.000000    0.086508                     |
 |             2         0.128234   -0.231642   -0.097888                     |
 |             3         0.128234    0.231642   -0.097888                     |
 |             4         0.000000    0.000000    0.282284                     |
 +----------------------------------------------------------------------------+
  
 Time to get kmesh              0.666 (sec)
 *============================================================================*
 |                              MEMORY ESTIMATE                               |
 |         Maximum RAM allocated during each phase of the calculation         |
 *============================================================================*
 |                        Disentanglement            4.84 Mb                  |
 |                            Wannierise:            3.09 Mb                  |
 |                          plot_wannier:            3.09 Mb                  |
 *----------------------------------------------------------------------------*
  
 Reading restart information from file wannier90.chk :
 written on 26Jul2025 at 03:54:02 ... done

 Restarting Wannier90 from plotting routines ...

 *---------------------------------------------------------------------------*
 |                               PLOTTING                                    |
 *---------------------------------------------------------------------------*

 !!!! Kpoint grid does not include Gamma.  Interpolation may be incorrect. !!!!

 Calculating interpolated band-structure

 Time to calculate interpolated band structure       0.308 (sec)

      Wannier Function Num:    1       Maximum Im/Re Ratio =    0.000273
      Wannier Function Num:    2       Maximum Im/Re Ratio =    0.000505
      Wannier Function Num:    3       Maximum Im/Re Ratio =    0.000210
      Wannier Function Num:    4       Maximum Im/Re Ratio =    0.000237
      Wannier Function Num:    5       Maximum Im/Re Ratio =    0.000552
      Wannier Function Num:    6       Maximum Im/Re Ratio =    0.000214
  
 Time for plotting             14.705 (sec)
 Total Execution Time          15.420 (sec)

 *===========================================================================*
 |                             TIMING INFORMATION                            |
 *===========================================================================*
 |    Tag                                                Ncalls      Time (s)|
 |---------------------------------------------------------------------------|
 |kmesh: get                                        :         1         0.666|
 |plot: main                                        :         1        14.705|
 *---------------------------------------------------------------------------*

 All done: wannier90 exiting
            Distance to Nearest-Neighbour Shells                    |
 |                    ------------------------------------                    |
 |          Shell             Distance (Ang^-1)          Multiplicity         |
 |          -----             -----------------          ------------         |
 |             1                   0.270664                      2            |
 |             2                   0.282284                      6            |
 |             3                   0.322651                      6            |
 |             4                   0.449202                      6            |
 |             5                   0.463285                      6            |
 |             6                   0.524444                      6            |
 |    |             8       |             8         0.000000    0.000000   -0.282284     4.659126        |
 +----------------------------------------------------------------------------+
 |                           b_k Directions (Ang^-1)                          |
 |                           -----------------------                          |
 |            No.           x           y           z                         |
 |            ---        --------------------------------                     |
 |             1         0.256467    0.000000    0.086508                     |
 |             2         0.128234   -0.231642   -0.097888                     |
 |             3         0.128234    0.231642   -0.097888                     |
 |             4         0.000000    0.000000    0.282284                     |
 +----------------------------------------------------------------------------+
  
 Time to get kmesh              0.665 (sec)
 *============================================================================*
 |                              MEMORY ESTIMATE                               |
 |         Maximum RAM allocated during each phase of the calculation         |
 *============================================================================*
 |                        Disentanglement            4.84 Mb                  |
 |                            Wannierise:            3.09 Mb                  |
 |                          plot_wannier:            3.09 Mb                  |
 *----------------------------------------------------------------------------*
  
 Reading restart information from file wannier90.chk :
 written on 26Jul2025 at 03:54:02 ... done

 Restarting Wannier90 from plotting routines ...

 *---------------------------------------------------------------------------*
 |                               PLOTTING                                    |
 *---------------------------------------------------------------------------*

 !!!! Kpoint grid does not include Gamma.  Interpolation may be incorrect. !!!!

 Calculating interpolated band-structure

 Time to calculate interpolated band structure       0.306 (sec)

      Wannier Function Num:    1       Maximum Im/Re Ratio =    0.000273
      Wannier Function Num:    2       Maximum Im/Re Ratio =    0.000505
      Wannier Function Num:    3       Maximum Im/Re Ratio =    0.000210
      Wannier Function Num:    4       Maximum Im/Re Ratio =    0.000237
      Wannier Function Num:    5       Maximum Im/Re Ratio =    0.000552
      Wannier Function Num:    6       Maximum Im/Re Ratio =    0.000214
  
 Time for plotting             14.678 (sec)
 Total Execution Time          15.392 (sec)

 *===========================================================================*
 |                             TIMING INFORMATION                            |
 *===========================================================================*
 |    Tag                                                Ncalls      Time (s)|
 |---------------------------------------------------------------------------|
 |kmesh: get                                        :         1         0.665|
 |plot: main                                        :         1        14.678|
 *---------------------------------------------------------------------------*

 All done: wannier90 exiting
               ----------------------------------------                  |
 |            No.         b_k(x)      b_k(y)      b_k(z)        w_b           |
 |            ---        --------------------------------     --------        |
 |             1         0.256467    0.000000    0.086508     5.272045        |
 |             2        -0.256467    0.000000   -0.086508     5.272045        |
 |             3         0.128234   -0.231642   -0.097888     4.659126        |
 |             4        -0.128234    0.231642    0.097888     4.659126        |
 |             5         0.128234    0.231642   -0.097888     4.659126        |
 |             6         0.000000    0.000000    0.282284     4.659126        |
 |             7        -0.128234   -0.231642    0.097888     4.659126      |    |             8         0.000000    0.000000   -0.282284     4.659126        |
 +----------------------------------------------------------------------------+
 |                           b_k Directions (Ang^-1)                          |
 |                           -----------------------                          |
 |            No.           x           y           z                         |
 |            ---        --------------------------------                     |
 |             1         0.256467    0.000000    0.086508                     |
 |             2         0.128234   -0.231642   -0.097888                     |
 |             3         0.128234    0.231642   -0.097888                     |
 |             4         0.000000    0.000000    0.282284                     |
 +----------------------------------------------------------------------------+
  
 Time to get kmesh              0.675 (sec)
 *============================================================================*
 |                              MEMORY ESTIMATE                               |
 |         Maximum RAM allocated during each phase of the calculation         |
 *============================================================================*
 |                        Disentanglement            4.84 Mb                  |
 |                            Wannierise:            3.09 Mb                  |
 |                          plot_wannier:            3.09 Mb                  |
 *----------------------------------------------------------------------------*
  
 Reading restart information from file wannier90.chk :
 written on 26Jul2025 at 03:54:02 ... done

 Restarting Wannier90 from plotting routines ...

 *---------------------------------------------------------------------------*
 |                               PLOTTING                                    |
 *---------------------------------------------------------------------------*

 !!!! Kpoint grid does not include Gamma.  Interpolation may be incorrect. !!!!

 Calculating interpolated band-structure

 Time to calculate interpolated band structure       0.312 (sec)

      Wannier Function Num:    1       Maximum Im/Re Ratio =    0.000273
      Wannier Function Num:    2       Maximum Im/Re Ratio =    0.000505
      Wannier Function Num:    3       Maximum Im/Re Ratio =    0.000210
      Wannier Function Num:    4       Maximum Im/Re Ratio =    0.000237
      Wannier Function Num:    5       Maximum Im/Re Ratio =    0.000552
      Wannier Function Num:    6       Maximum Im/Re Ratio =    0.000214
  
 Time for plotting             14.725 (sec)
 Total Execution Time          15.448 (sec)

 *===========================================================================*
 |                             TIMING INFORMATION                            |
 *===========================================================================*
 |    Tag                                                Ncalls      Time (s)|
 |---------------------------------------------------------------------------|
 |kmesh: get                                        :         1         0.675|
 |plot: main                                        :         1        14.725|
 *---------------------------------------------------------------------------*

 All done: wannier90 exiting
ne: wannier90 exiting
               ----------------------------------------                  |
 |            No.         b_k(x)      b_k(y)      b_k(z)        w_b           |
 |            ---        --------------------------------     --------        |
 |             1         0.256467    0.000000    0.086508     5.272045        |
 |             2        -0.256467    0.000000   -0.086508     5.272045        |
 |             3         0.128234   -0.231642   -0.097888     4.659126        |
 |             4        -0.128234    0.231642    0.097888     4.659126        |
 |             5         0.128234    0.231642   -0.097888     4.659126        |
 |             6         0.000000    0.000000    0.282284     4.659126        |
 |             7        -0.128234   -0.231642    0.097888     4.659126      |    |             8         0.000000    0.000000   -0.282284     4.659126        |
 +----------------------------------------------------------------------------+
 |                           b_k Directions (Ang^-1)                          |
 |                           -----------------------                          |
 |            No.           x           y           z                         |
 |            ---        --------------------------------                     |
 |             1         0.256467    0.000000    0.086508                     |
 |             2         0.128234   -0.231642   -0.097888                     |
 |             3         0.128234    0.231642   -0.097888                     |
 |             4         0.000000    0.000000    0.282284                     |
 +----------------------------------------------------------------------------+
  
 Time to get kmesh              0.675 (sec)
 *============================================================================*
 |                              MEMORY ESTIMATE                               |
 |         Maximum RAM allocated during each phase of the calculation         |
 *============================================================================*
 |                        Disentanglement            4.84 Mb                  |
 |                            Wannierise:            3.09 Mb                  |
 |                          plot_wannier:            3.09 Mb                  |
 *----------------------------------------------------------------------------*
  
 Reading restart information from file wannier90.chk :
 written on 26Jul2025 at 03:54:02 ... done

 Restarting Wannier90 from plotting routines ...

 *---------------------------------------------------------------------------*
 |                               PLOTTING                                    |
 *---------------------------------------------------------------------------*

 !!!! Kpoint grid does not include Gamma.  Interpolation may be incorrect. !!!!

 Calculating interpolated band-structure

 Time to calculate interpolated band structure       0.313 (sec)

      Wannier Function Num:    1       Maximum Im/Re Ratio =    0.000273
      Wannier Function Num:    2       Maximum Im/Re Ratio =    0.000505
      Wannier Function Num:    3       Maximum Im/Re Ratio =    0.000210
      Wannier Function Num:    4       Maximum Im/Re Ratio =    0.000237
      Wannier Function Num:    5       Maximum Im/Re Ratio =    0.000552
      Wannier Function Num:    6       Maximum Im/Re Ratio =    0.000214
  
 Time for plotting             14.660 (sec)
 Total Execution Time          15.383 (sec)

 *===========================================================================*
 |                             TIMING INFORMATION                            |
 *===========================================================================*
 |    Tag                                                Ncalls      Time (s)|
 |---------------------------------------------------------------------------|
 |kmesh: get                                        :         1         0.675|
 |plot: main                                        :         1        14.660|
 *---------------------------------------------------------------------------*

 All done: wannier90 exiting
               |
 |                  ----------------------------------------                  |
 |            No.         b_k(x)      b_k(y)      b_k(z)        w_b           |
 |            ---        --------------------------------     --------        |
 |             1         0.256467    0.000000    0.086508     5.272045        |
 |             2        -0.256467    0.000000   -0.086508     5.272045        |
 |             3         0.128234   -0.231642   -0.097888     4.659126        |
 |             4        -0.128234    0.231642    0.097888     4.659126        |
 |             5         0.128234    0.231642   -0.097888     4.659126        |
 |             6         0.000000    0.000000    0.282284     4.659126        |
 |             7        -0.128234   -0.231642    0.097888     4.659126        |
 |             8         0.000000    0.000000   -0.282284     4.659126        |
 +----------------------------------------------------------------------------+
 |                           b_k Directions (Ang^-1)                          |
 |                           -----------------------                          |
 |            No.           x           y           z                         |
 |            ---        --------------------------------                     |
 |             1         0.256467    0.000000    0.086508                     |
 |             2         0.128234   -0.231642   -0.097888                     |
 |             3         0.128234    0.231642   -0.097888                     |
 |             4         0.000000    0.000000    0.282284                     |
 +----------------------------------------------------------------------------+
  
 Time to get kmesh              0.675 (sec)
 *============================================================================*
 |                              MEMORY ESTIMATE                               |
 |         Maximum RAM allocated during each phase of the calculation         |
 *============================================================================*
 |                        Disentanglement            4.84 Mb                  |
 |                            Wannierise:            3.09 Mb                  |
 |                          plot_wannier:            3.09 Mb                  |
 *----------------------------------------------------------------------------*
  
 Reading restart information from file wannier90.chk :
 written on 26Jul2025 at 03:54:02 ... done

 Restarting Wannier90 from plotting routines ...

 *---------------------------------------------------------------------------*
 |                               PLOTTING                                    |
 *---------------------------------------------------------------------------*

 !!!! Kpoint grid does not include Gamma.  Interpolation may be incorrect. !!!!

 Calculating interpolated band-structure

 Time to calculate interpolated band structure       0.313 (sec)

      Wannier Function Num:    1       Maximum Im/Re Ratio =    0.000273
      Wannier Function Num:    2       Maximum Im/Re Ratio =    0.000505
      Wannier Function Num:    3       Maximum Im/Re Ratio =    0.000210
      Wannier Function Num:    4       Maximum Im/Re Ratio =    0.000237
      Wannier Function Num:    5       Maximum Im/Re Ratio =    0.000552
      Wannier Function Num:    6       Maximum Im/Re Ratio =    0.000214
  
 Time for plotting             14.684 (sec)
 Total Execution Time          15.407 (sec)

 *===========================================================================*
 |                             TIMING INFORMATION                            |
 *===========================================================================*
 |    Tag                                                Ncalls      Time (s)|
 |---------------------------------------------------------------------------|
 |kmesh: get                                        :         1         0.675|
 |plot: main                                        :         1        14.684|
 *---------------------------------------------------------------------------*

 All done: wannier90 exiting
