
             +---------------------------------------------------+
             |                                                   |
             |                   WANNIER90                       |
             |                                                   |
             +---------------------------------------------------+
             |                                                   |
             |        Welcome to the Maximally-Localized         |
             |        Generalized Wannier Functions code         |
             |            http://www.wannier.org                 |
             |                                                   |
             |                                                   |
             |  Wannier90 Developer Group:                       |
             |    Giovanni Pizzi    (EPFL)                       |
             |    Valerio Vitale    (Cambridge)                  |
             |    David Vanderbilt  (Rutgers University)         |
             |    Nicola Marzari    (EPFL)                       |
             |    Ivo Souza         (Universidad del Pais Vasco) |
             |    Arash A. Mostofi  (Imperial College London)    |
             |    Jonathan R. Yates (University of Oxford)       |
             |                                                   |
             |  For the full list of Wannier90 3.x authors,      |
             |  please check the code documentation and the      |
             |  README on the GitHub page of the code            |
             |                                                   |
             |                                                   |
             |  Please cite                                      |
             |                                                   |
             |  [ref] "Wannier90 as a community code:            |
             |        new features and applications",            |
             |        G. Pizzi et al., J. Phys. Cond. Matt. 32,  |
             |        165902 (2020).                             |
             |        http://doi.org/10.1088/1361-648X/ab51ff    |
             |                                                   |
             |  in any publications arising from the use of      |
             |  this code. For the method please cite            |
             |                                                   |
             |  [ref] "Maximally Localized Generalised Wannier   |
             |         Functions for Composite Energy Bands"     |
             |         N. Marzari and D. Vanderbilt              |
             |         Phys. Rev. B 56 12847 (1997)              |
             |                                                   |
             |  [ref] "Maximally Localized Wannier Functions     |
             |         for Entangled Energy Bands"               |
             |         I. Souza, N. Marzari and D. Vanderbilt    |
             |         Phys. Rev. B 65 035109 (2001)             |
             |                                                   |
             |                                                   |
             | Copyright (c) 1996-2020                           |
             |        The Wannier90 Developer Group and          |
             |        individual contributors                    |
             |                                                   |
             |      Release: 3.1.0        5th March    2020      |
             |                                                   |
             | This program is free software; you can            |
             | redistribute it and/or modify it under the terms  |
             | of the GNU General Public License as published by |
             | the Free Software Foundation; either version 2 of |
             | the License, or (at your option) any later version|
             |                                                   |
             | This program is distributed in the hope that it   |
             | will be useful, but WITHOUT ANY WARRANTY; without |
             | even the implied warranty of MERCHANTABILITY or   |
             | FITNESS FOR A PARTICULAR PURPOSE. See the GNU     |
             | General Public License for more details.          |
             |                                                   |
             | You should have received a copy of the GNU General|
             | Public License along with this program; if not,   |
             | write to the Free Software Foundation, Inc.,      |
             | 675 Mass Ave, Cambridge, MA 02139, USA.           |
             |                                                   |
             +---------------------------------------------------+
             |    Execution started on 19Jul2025 at 00:13:29     |
             +---------------------------------------------------+
 
 ******************************************************************************
 * -> Using CODATA 2006 constant values                                       *
 *    (http://physics.nist.gov/cuu/Constants/index.html)                      *
 * -> Using Bohr value from CODATA                                            *
 ******************************************************************************
 

 Running in serial (with serial executable)

                                    ------
                                    SYSTEM
                                    ------

                              Lattice Vectors (Ang)
                    a_1     0.000000   2.000000   2.000000
                    a_2     2.000000   0.000000   2.000000
                    a_3     2.000000   2.000000   0.000000

                   Unit Cell Volume:      16.00000  (Ang^3)

                        Reciprocal-Space Vectors (Ang^-1)
                    b_1    -1.570796   1.570796   1.570796
                    b_2     1.570796  -1.570796   1.570796
                    b_3     1.570796   1.570796  -1.570796
  
 *----------------------------------------------------------------------------*
 |   Site       Fractional Coordinate          Cartesian Coordinate (Ang)     |
 +----------------------------------------------------------------------------+
 | H    1   0.00000   0.00000   0.00000   |    0.00000   0.00000   0.00000    |
 *----------------------------------------------------------------------------*
                                ------------
                                K-POINT GRID
                                ------------
  
             Grid size =  8 x  8 x  8      Total points =  512
  
  
 *---------------------------------- MAIN ------------------------------------*
 |  Number of Wannier Functions               :                 1             |
 |  Number of Objective Wannier Functions     :                 1             |
 |  Number of input Bloch states              :                48             |
 |  Output verbosity (1=low, 5=high)          :                 1             |
 |  Timing Level (1=low, 5=high)              :                 1             |
 |  Optimisation (0=memory, 3=speed)          :                 3             |
 |  Length Unit                               :               Ang             |
 |  Post-processing setup (write *.nnkp)      :                 F             |
 |  Using Gamma-only branch of algorithms     :                 F             |
 *----------------------------------------------------------------------------*
 *------------------------------- WANNIERISE ---------------------------------*
 |  Total number of iterations                :                 0             |
 |  Number of CG steps before reset           :                 5             |
 |  Trial step length for line search         :             2.000             |
 |  Convergence tolerence                     :         0.100E-09             |
 |  Convergence window                        :                -1             |
 |  Iterations between writing output         :                 1             |
 |  Iterations between backing up to disk     :               100             |
 |  Write r^2_nm to file                      :                 F             |
 |  Write xyz WF centres to file              :                 T             |
 |  Write on-site energies <0n|H|0n> to file  :                 F             |
 |  Use guiding centre to control phases      :                 F             |
 |  Use phases for initial projections        :                 F             |
 *----------------------------------------------------------------------------*
 *------------------------------- DISENTANGLE --------------------------------*
 |  Using band disentanglement                :                 T             |
 |  Total number of iterations                :                 0             |
 |  Mixing ratio                              :             0.500             |
 |  Convergence tolerence                     :         1.000E-10             |
 |  Convergence window                        :                 3             |
 *----------------------------------------------------------------------------*
 Time to read parameters        0.119 (sec)

 *---------------------------------- K-MESH ----------------------------------*
 +----------------------------------------------------------------------------+
 |                    Distance to Nearest-Neighbour Shells                    |
 |                    ------------------------------------                    |
 |          Shell             Distance (Ang^-1)          Multiplicity         |
 |          -----             -----------------          ------------         |
 |             1                   0.340087                      8            |
 |             2                   0.392699                      6            |
 |             3                   0.555360                     12            |
 |             4                   0.651218                     24            |
 |             5                   0.680175                      8            |
 |             6                   0.785398                      6            |
 |             7                   0.855868                     24            |
 |             8                   0.878102                     24            |
 |             9                   0.961912                     24            |
 |            10                   1.020262                     32            |
 |            11                   1.110721                     12            |
 |            12                   1.161620                     48            |
 |            13                   1.178097                     30            |
 |            14                   1.241824                     24            |
 |            15                   1.287550                     24            |
 |            16                   1.302436                     24            |
 |            17                   1.360350                      8            |
 |            18                   1.402216                     48            |
 |            19                   1.415897                     24            |
 |            20                   1.469345                     48            |
 |            21                   1.508189                     72            |
 |            22                   1.570796                      6            |
 |            23                   1.607190                     24            |
 |            24                   1.619140                     48            |
 |            25                   1.666081                     36            |
 |            26                   1.700437                     56            |
 |            27                   1.711736                     24            |
 |            28                   1.756204                     24            |
 |            29                   1.788829                     72            |
 |            30                   1.799573                     48            |
 |            31                   1.841922                     24            |
 |            32                   1.873055                     48            |
 |            33                   1.923825                     24            |
 |            34                   1.953653                     72            |
 |            35                   1.963495                     30            |
 |            36                   2.002380                     72            |
 +----------------------------------------------------------------------------+
 | The b-vectors are chosen automatically                                     |
 | The following shells are used:   1                                         |
 +----------------------------------------------------------------------------+
 |                        Shell   # Nearest-Neighbours                        |
 |                        -----   --------------------                        |
 |                          1               8                                 |
 +----------------------------------------------------------------------------+
 | Completeness relation is fully satisfied [Eq. (B1), PRB 56, 12847 (1997)]  |
 +----------------------------------------------------------------------------+
 |                  b_k Vectors (Ang^-1) and Weights (Ang^2)                  |
 |                  ----------------------------------------                  |
 |            No.         b_k(x)      b_k(y)      b_k(z)        w_b           |
 |            ---        --------------------------------     --------        |
 |             1        -0.196350    0.196350    0.196350     3.242278        |
 |             2         0.196350   -0.196350   -0.196350     3.242278        |
 |             3         0.196350   -0.196350    0.196350     3.242278        |
 |             4        -0.196350    0.196350   -0.196350     3.242278        |
 |             5         0.196350    0.196350   -0.196350     3.242278        |
 |             6         0.196350    0.196350    0.196350     3.242278        |
 |             7        -0.196350   -0.196350    0.196350     3.242278        |
 |             8        -0.196350   -0.196350   -0.196350     3.242278        |
 +----------------------------------------------------------------------------+
 |                           b_k Directions (Ang^-1)                          |
 |                           -----------------------                          |
 |            No.           x           y           z                         |
 |            ---        --------------------------------                     |
 |             1        -0.196350    0.196350    0.196350                     |
 |             2         0.196350   -0.196350    0.196350                     |
 |             3         0.196350    0.196350   -0.196350                     |
 |             4         0.196350    0.196350    0.196350                     |
 +----------------------------------------------------------------------------+
  
 Time to get kmesh              1.363 (sec)
 *============================================================================*
 |                              MEMORY ESTIMATE                               |
 |         Maximum RAM allocated during each phase of the calculation         |
 *============================================================================*
 |                        Disentanglement          181.62 Mb                  |
 |                            Wannierise:            1.09 Mb                  |
 |                          plot_wannier:            1.09 Mb                  |
 *----------------------------------------------------------------------------*
  
 Starting a new Wannier90 calculation ...


 Reading overlaps from wannier90.mmn    : File generated by VASP: unknown system

 Reading projections from wannier90.amn : File generated by VASP: unknown system

 Time to read overlaps          8.891 (sec)

 *------------------------------- DISENTANGLE --------------------------------*
 +----------------------------------------------------------------------------+
 |                              Energy  Windows                               |
 |                              ---------------                               |
 |                   Outer:  -10.00000  to    0.00000  (eV)                   |
 |                   Inner:  -10.00000  to    0.00000  (eV)                   |
 +----------------------------------------------------------------------------+
   Number of target bands to extract:    1

                   Unitarised projection of Wannier functions                  
                   ------------------------------------------                  
   A_mn = <psi_m|g_n> --> S = A.A^+ --> U = S^-1/2.A
   In dis_project... done
   Using an inner window (linner = T)
   In dis_proj_froz... done

                   Extraction of optimally-connected subspace                  
                   ------------------------------------------                  
 +---------------------------------------------------------------------+<-- DIS
 |  Iter     Omega_I(i-1)      Omega_I(i)      Delta (frac.)    Time   |<-- DIS
 +---------------------------------------------------------------------+<-- DIS

     <<< Warning: Maximum number of disentanglement iterations reached >>>
          <<< Disentanglement convergence criteria not satisfied >>>

        Final Omega_I     0.00000000 (Ang^2)

 +----------------------------------------------------------------------------+

 Time to disentangle bands      0.025 (sec)

 Writing checkpoint file wannier90.chk... done


 *------------------------------- WANNIERISE ---------------------------------*
 +--------------------------------------------------------------------+<-- CONV
 | Iter  Delta Spread     RMS Gradient      Spread (Ang^2)      Time  |<-- CONV
 +--------------------------------------------------------------------+<-- CONV

 ------------------------------------------------------------------------------
 Initial State
  WF centre and spread    1  ( -0.000000,  0.000000, -0.000000 )     0.97185283
  Sum of centres and spreads ( -0.000000,  0.000000, -0.000000 )     0.97185283

      0     0.972E+00     0.0000000000        0.9718528324       0.00  <-- CONV
        O_D=      0.0000000 O_OD=      0.0000000 O_TOT=      0.9718528 <-- SPRD
 ------------------------------------------------------------------------------
 Final State
  WF centre and spread    1  ( -0.000000,  0.000000, -0.000000 )     0.97185283
  Sum of centres and spreads ( -0.000000,  0.000000, -0.000000 )     0.97185283

         Spreads (Ang^2)       Omega I      =     0.971852832
        ================       Omega D      =     0.000000000
                               Omega OD     =     0.000000000
    Final Spread (Ang^2)       Omega Total  =     0.971852832
 ------------------------------------------------------------------------------

 Wannier centres written to file wannier90_centres.xyz
 Time for wannierise            0.001 (sec)

 Writing checkpoint file wannier90.chk... done

 Time for plotting              0.000 (sec)
 Total Execution Time          10.402 (sec)

 *===========================================================================*
 |                             TIMING INFORMATION                            |
 *===========================================================================*
 |    Tag                                                Ncalls      Time (s)|
 |---------------------------------------------------------------------------|
 |kmesh: get                                        :         1         1.363|
 |overlap: allocate                                 :         1         0.000|
 |overlap: read                                     :         1         8.890|
 |dis: main                                         :         1         0.025|
 |wann: main                                        :         1         0.001|
 |plot: main                                        :         1         0.000|
 *---------------------------------------------------------------------------*

 All done: wannier90 exiting

             +---------------------------------------------------+
             |                                                   |
             |                   WANNIER90                       |
             |                                                   |
             +---------------------------------------------------+
             |                                                   |
             |        Welcome to the Maximally-Localized         |
             |        Generalized Wannier Functions code         |
             |            http://www.wannier.org                 |
             |                                                   |
             |                                                   |
             |  Wannier90 Developer Group:                       |
             |    Giovanni Pizzi    (EPFL)                       |
             |    Valerio Vitale    (Cambridge)                  |
             |    David Vanderbilt  (Rutgers University)         |
             |    Nicola Marzari    (EPFL)                       |
             |    Ivo Souza         (Universidad del Pais Vasco) |
             |    Arash A. Mostofi  (Imperial College London)    |
             |    Jonathan R. Yates (University of Oxford)       |
             |                                                   |
             |  For the full list of Wannier90 3.x authors,      |
             |  please check the code documentation and the      |
             |  README on the GitHub page of the code            |
             |                                                   |
             |                                                   |
             |  Please cite                                      |
             |                                                   |
             |  [ref] "Wannier90 as a community code:            |
             |        new features and applications",            |
             |        G. Pizzi et al., J. Phys. Cond. Matt. 32,  |
             |        165902 (2020).                             |
             |        http://doi.org/10.1088/1361-648X/ab51ff    |
             |                                                   |
             |  in any publications arising from the use of      |
             |  this code. For the method please cite            |
             |                                                   |
             |  [ref] "Maximally Localized Generalised Wannier   |
             |         Functions for Composite Energy Bands"     |
             |         N. Marzari and D. Vanderbilt              |
             |         Phys. Rev. B 56 12847 (1997)              |
             |                                                   |
             |  [ref] "Maximally Localized Wannier Functions     |
             |         for Entangled Energy Bands"               |
             |         I. Souza, N. Marzari and D. Vanderbilt    |
             |         Phys. Rev. B 65 035109 (2001)             |
             |                                                   |
             |                                                   |
             | Copyright (c) 1996-2020                           |
             |        The Wannier90 Developer Group and          |
             |        individual contributors                    |
             |                                                   |
             |      Release: 3.1.0        5th March    2020      |
             |                                                   |
             | This program is free software; you can            |
             | redistribute it and/or modify it under the terms  |
             | of the GNU General Public License as published by |
             | the Free Software Foundation; either version 2 of |
             | the License, or (at your option) any later version|
             |                                                   |
             | This program is distributed in the hope that it   |
             | will be useful, but WITHOUT ANY WARRANTY; without |
             | even the implied warranty of MERCHANTABILITY or   |
             | FITNESS FOR A PARTICULAR PURPOSE. See the GNU     |
             | General Public License for more details.          |
             |                                                   |
             | You should have received a copy of the GNU General|
             | Public License along with this program; if not,   |
             | write to the Free Software Foundation, Inc.,      |
             | 675 Mass Ave, Cambridge, MA 02139, USA.           |
             |                                                   |
             +---------------------------------------------------+
             |    Execution started on 19Jul2025 at 00:13:40     |
             +---------------------------------------------------+
 
 ******************************************************************************
 * -> Using CODATA 2006 constant values                                       *
 *    (http://physics.nist.gov/cuu/Constants/index.html)                      *
 * -> Using Bohr value from CODATA                                            *
 ******************************************************************************
 

 Running in serial (with serial executable)

                                    ------
                                    SYSTEM
                                    ------

                              Lattice Vectors (Ang)
                    a_1     0.000000   2.000000   2.000000
                    a_2     2.000000   0.000000   2.000000
                    a_3     2.000000   2.000000   0.000000

                   Unit Cell Volume:      16.00000  (Ang^3)

                        Reciprocal-Space Vectors (Ang^-1)
                    b_1    -1.570796   1.570796   1.570796
                    b_2     1.570796  -1.570796   1.570796
                    b_3     1.570796   1.570796  -1.570796
  
 *----------------------------------------------------------------------------*
 |   Site       Fractional Coordinate          Cartesian Coordinate (Ang)     |
 +----------------------------------------------------------------------------+
 | H    1   0.00000   0.00000   0.00000   |    0.00000   0.00000   0.00000    |
 *----------------------------------------------------------------------------*
                                ------------
                                K-POINT GRID
                                ------------
  
             Grid size =  8 x  8 x  8      Total points =  512
  
  
 *---------------------------------- MAIN ------------------------------------*
 |  Number of Wannier Functions               :                 1             |
 |  Number of Objective Wannier Functions     :                 1             |
 |  Number of input Bloch states              :                48             |
 |  Output verbosity (1=low, 5=high)          :                 1             |
 |  Timing Level (1=low, 5=high)              :                 1             |
 |  Optimisation (0=memory, 3=speed)          :                 3             |
 |  Length Unit                               :               Ang             |
 |  Post-processing setup (write *.nnkp)      :                 F             |
 |  Using Gamma-only branch of algorithms     :                 F             |
 *----------------------------------------------------------------------------*
 *------------------------------- WANNIERISE ---------------------------------*
 |  Total number of iterations                :                 0             |
 |  Number of CG steps before reset           :                 5             |
 |  Trial step length for line search         :             2.000             |
 |  Convergence tolerence                     :         0.100E-09             |
 |  Convergence window                        :                -1             |
 |  Iterations between writing output         :                 1             |
 |  Iterations between backing up to disk     :               100             |
 |  Write r^2_nm to file                      :                 F             |
 |  Write xyz WF centres to file              :                 T             |
 |  Write on-site energies <0n|H|0n> to file  :                 F             |
 |  Use guiding centre to control phases      :                 F             |
 |  Use phases for initial projections        :                 F             |
 *----------------------------------------------------------------------------*
 *------------------------------- DISENTANGLE --------------------------------*
 |  Using band disentanglement                :                 T             |
 |  Total number of iterations                :                 0             |
 |  Mixing ratio                              :             0.500             |
 |  Convergence tolerence                     :         1.000E-10             |
 |  Convergence window                        :                 3             |
 *----------------------------------------------------------------------------*
 *-------------------------------- PLOTTING ----------------------------------*
 |  Plotting interpolated bandstructure       :                 T             |
 |   Number of K-path sections                :                10             |
 |   Divisions along first K-path section     :                40             |
 |   Output format                            :          gnuplot              |
 |   Output mode                              :               s-k             |
 *----------------------------------------------------------------------------*
 |   K-space path sections:                                                   |
 |    From: G       0.000  0.000  0.000     To: X       0.500  0.000  0.500   |
 |    From: X       0.500  0.000  0.500     To: W       0.500  0.250  0.750   |
 |    From: W       0.500  0.250  0.750     To: K       0.375  0.375  0.750   |
 |    From: K       0.375  0.375  0.750     To: G       0.000  0.000  0.000   |
 |    From: G       0.000  0.000  0.000     To: L       0.500  0.500  0.500   |
 |    From: L       0.500  0.500  0.500     To: U       0.625  0.250  0.625   |
 |    From: U       0.625  0.250  0.625     To: W       0.500  0.250  0.750   |
 |    From: W       0.500  0.250  0.750     To: L       0.500  0.500  0.500   |
 |    From: L       0.500  0.500  0.500     To: K       0.375  0.375  0.750   |
 |    From: U       0.625  0.250  0.625     To: X       0.500  0.000  0.500   |
 *----------------------------------------------------------------------------*
 |  Plotting Hamiltonian in WF basis          :                 T             |
 *----------------------------------------------------------------------------*
 Time to read parameters        0.050 (sec)

 *---------------------------------- K-MESH ----------------------------------*
 +----------------------------------------------------------------------------+
 |                    Distance to Nearest-Neighbour Shells                    |
 |                    ------------------------------------                    |
 |          Shell             Distance (Ang^-1)          Multiplicity         |
 |          -----             -----------------          ------------         |
 |             1                   0.340087                      8            |
 |             2                   0.392699                      6            |
 |             3                   0.555360                     12            |
 |             4                   0.651218                     24            |
 |             5                   0.680175                      8            |
 |             6                   0.785398                      6            |
 |             7                   0.855868                     24            |
 |             8                   0.878102                     24            |
 |             9                   0.961912                     24            |
 |            10                   1.020262                     32            |
 |            11                   1.110721                     12            |
 |            12                   1.161620                     48            |
 |            13                   1.178097                     30            |
 |            14                   1.241824                     24            |
 |            15                   1.287550                     24            |
 |            16                   1.302436                     24            |
 |            17                   1.360350                      8            |
 |            18                   1.402216                     48            |
 |            19                   1.415897                     24            |
 |            20                   1.469345                     48            |
 |            21                   1.508189                     72            |
 |            22                   1.570796                      6            |
 |            23                   1.607190                     24            |
 |            24                   1.619140                     48            |
 |            25                   1.666081                     36            |
 |            26                   1.700437                     56            |
 |            27                   1.711736                     24            |
 |            28                   1.756204                     24            |
 |            29                   1.788829                     72            |
 |            30                   1.799573                     48            |
 |            31                   1.841922                     24            |
 |            32                   1.873055                     48            |
 |            33                   1.923825                     24            |
 |            34                   1.953653                     72            |
 |            35                   1.963495                     30            |
 |            36                   2.002380                     72            |
 +----------------------------------------------------------------------------+
 | The b-vectors are chosen automatically                                     |
 | The following shells are used:   1                                         |
 +----------------------------------------------------------------------------+
 |                        Shell   # Nearest-Neighbours                        |
 |                        -----   --------------------                        |
 |                          1               8                                 |
 +----------------------------------------------------------------------------+
 | Completeness relation is fully satisfied [Eq. (B1), PRB 56, 12847 (1997)]  |
 +----------------------------------------------------------------------------+
 |                  b_k Vectors (Ang^-1) and Weights (Ang^2)                  |
 |                  ----------------------------------------                  |
 |            No.         b_k(x)      b_k(y)      b_k(z)        w_b           |
 |            ---        --------------------------------     --------        |
 |             1        -0.196350    0.196350    0.196350     3.242278        |
 |             2         0.196350   -0.196350   -0.196350     3.242278        |
 |             3         0.196350   -0.196350    0.196350     3.242278        |
 |             4        -0.196350    0.196350   -0.196350     3.242278        |
 |             5         0.196350    0.196350   -0.196350     3.242278        |
 |             6         0.196350    0.196350    0.196350     3.242278        |
 |             7        -0.196350   -0.196350    0.196350     3.242278        |
 |             8        -0.196350   -0.196350   -0.196350     3.242278        |
 +----------------------------------------------------------------------------+
 |                           b_k Directions (Ang^-1)                          |
 |                           -----------------------                          |
 |            No.           x           y           z                         |
 |            ---        --------------------------------                     |
 |             1        -0.196350    0.196350    0.196350                     |
 |             2         0.196350   -0.196350    0.196350                     |
 |             3         0.196350    0.196350   -0.196350                     |
 |             4         0.196350    0.196350    0.196350                     |
 +----------------------------------------------------------------------------+
  
 Time to get kmesh              1.163 (sec)
 *============================================================================*
 |                              MEMORY ESTIMATE                               |
 |         Maximum RAM allocated during each phase of the calculation         |
 *============================================================================*
 |                        Disentanglement          181.62 Mb                  |
 |                            Wannierise:            1.09 Mb                  |
 |                          plot_wannier:            1.09 Mb                  |
 *----------------------------------------------------------------------------*
  
 Reading restart information from file wannier90.chk :
 written on 19Jul2025 at 00:13:40 ... done

 Restarting Wannier90 from plotting routines ...

 *---------------------------------------------------------------------------*
 |                               PLOTTING                                    |
 *---------------------------------------------------------------------------*

 !!!! Kpoint grid does not include Gamma.  Interpolation may be incorrect. !!!!

 Calculating interpolated band-structure

 Time to calculate interpolated band structure       0.030 (sec)

 Time for plotting              0.182 (sec)
 Total Execution Time           1.396 (sec)

 *===========================================================================*
 |                             TIMING INFORMATION                            |
 *===========================================================================*
 |    Tag                                                Ncalls      Time (s)|
 |---------------------------------------------------------------------------|
 |kmesh: get                                        :         1         1.163|
 |plot: main                                        :         1         0.182|
 *---------------------------------------------------------------------------*

 All done: wannier90 exiting
      0.625  0.250  0.625     To: X       0.500  0.000  0.500   |
 *----------------------------------------------------------------------------*
 |  Plotting Hamiltonian in WF basis          :                 T             |
 *----------------------------------------------------------------------------*
 Time to read parameters        0.071 (sec)

 *---------------------------------- K-MESH ----------------------------------*
 +----------------------------------------------------------------------------+
 |                    Distance to Nearest-Neighbour Shells                    |
 |                    ------------------------------------                    |
 |          Shell             Distance (Ang^-1)          Multiplicity         |
 |          -----             -----------------          ------------         |
 |             1                   0.340087                      8            |
 |             2                   0.392699                      6            |
 |             3                   0.555360                     12            |
 |             4                   0.651218                     24            |
 |             5                   0.680175                      8            |
 |             6                   0.785398                      6            |
 |             7                   0.855868                     24            |
 |             8                   0.878102                     24            |
 |             9                   0.961912                     24            |
 |            10                   1.020262                     32            |
 |            11                   1.110721                     12            |
 |            12                   1.161620                     48            |
 |            13                   1.178097                     30            |
 |            14                   1.241824                     24            |
 |            15                   1.287550                     24            |
 |            16                   1.302436                     24            |
 |            17                   1.360350                      8            |
 |            18                   1.402216                     48            |
 |            19                   1.415897                     24            |
 |            20                   1.469345                     48            |
 |            21                   1.508189                     72            |
 |            22                   1.570796                      6            |
 |            23                   1.607190                     24            |
 |            24                   1.619140                     48            |
 |            25                   1.666081                     36            |
 |            26                   1.700437                     56            |
 |            27                   1.711736                     24            |
 |            28                   1.756204                     24            |
 |            29                   1.788829                     72            |
 |            30                   1.799573                     48            |
 |            31                   1.841922                     24            |
 |            32                   1.873055                     48            |
 |            33                   1.923825                     24            |
 |            34                   1.953653                     72            |
 |            35                   1.963495                     30            |
 |            36                   2.002380                     72            |
 +----------------------------------------------------------------------------+
 | The b-vectors are chosen automatically                                     |
 | The following shells are used:   1                                         |
 +----------------------------------------------------------------------------+
 |                        Shell   # Nearest-Neighbours                        |
 |                        -----   --------------------                        |
 |                          1               8                                 |
 +----------------------------------------------------------------------------+
 | Completeness relation is fully satisfied [Eq. (B1), PRB 56, 12847 (1997)]  |
 +----------------------------------------------------------------------------+
 |                  b_k Vectors (Ang^-1) and Weights (Ang^2)                  |
 |                  ----------------------------------------                  |
 |            No.         b_k(x)      b_k(y)      b_k(z)        w_b           |
 |            ---        --------------------------------     --------        |
 |             1        -0.196350    0.196350    0.196350     3.242278        |
 |             2         0.196350   -0.196350   -0.196350     3.242278        |
 |             3         0.196350   -0.196350    0.196350     3.242278        |
 |             4        -0.196350    0.196350   -0.196350     3.242278        |
 |             5         0.196350    0.196350   -0.196350     3.242278        |
 |             6         0.196350    0.196350    0.196350     3.242278        |
 |             7        -0.196350   -0.196350    0.196350     3.242278        |
 |             8        -0.196350   -0.196350   -0.196350     3.242278        |
 +----------------------------------------------------------------------------+
 |                           b_k Directions (Ang^-1)                          |
 |                           -----------------------                          |
 |            No.           x           y           z                         |
 |            ---        --------------------------------                     |
 |             1        -0.196350    0.196350    0.196350                     |
 |             2         0.196350   -0.196350    0.196350                     |
 |             3         0.196350    0.196350   -0.196350                     |
 |             4         0.196350    0.196350    0.196350                     |
 +----------------------------------------------------------------------------+
  
 Time to get kmesh              1.244 (sec)
 *============================================================================*
 |                              MEMORY ESTIMATE                               |
 |         Maximum RAM allocated during each phase of the calculation         |
 *============================================================================*
 |                        Disentanglement          181.62 Mb                  |
 |                            Wannierise:            1.09 Mb                  |
 |                          plot_wannier:            1.09 Mb                  |
 *----------------------------------------------------------------------------*
  
 Reading restart information from file wannier90.chk :
 written on 19Jul2025 at 00:13:40 ... done

 Restarting Wannier90 from plotting routines ...

 *---------------------------------------------------------------------------*
 |                               PLOTTING                                    |
 *---------------------------------------------------------------------------*

 !!!! Kpoint grid does not include Gamma.  Interpolation may be incorrect. !!!!

 Calculating interpolated band-structure

 Time to calculate interpolated band structure       0.030 (sec)

 Time for plotting              0.182 (sec)
 Total Execution Time           1.498 (sec)

 *===========================================================================*
 |                             TIMING INFORMATION                            |
 *===========================================================================*
 |    Tag                                                Ncalls      Time (s)|
 |---------------------------------------------------------------------------|
 |kmesh: get                                        :         1         1.244|
 |plot: main                                        :         1         0.182|
 *---------------------------------------------------------------------------*

 All done: wannier90 exiting
      0.625  0.250  0.625     To: X       0.500  0.000  0.500   |
 *----------------------------------------------------------------------------*
 |  Plotting Hamiltonian in WF basis          :                 T             |
 *----------------------------------------------------------------------------*
 Time to read parameters        0.071 (sec)

 *---------------------------------- K-MESH ----------------------------------*
 +----------------------------------------------------------------------------+
 |                    Distance to Nearest-Neighbour Shells                    |
 |                    ------------------------------------                    |
 |          Shell             Distance (Ang^-1)          Multiplicity         |
 |          -----             -----------------          ------------         |
 |             1                   0.340087                      8            |
 |             2                   0.392699                      6            |
 |             3                   0.555360                     12            |
 |             4                   0.651218                     24            |
 |             5                   0.680175                      8            |
 |             6                   0.785398                      6            |
 |             7                   0.855868                     24            |
 |             8                   0.878102                     24            |
 |             9                   0.961912                     24            |
 |            10                   1.020262                     32            |
 |            11                   1.110721                     12            |
 |            12                   1.161620                     48            |
 |            13                   1.178097                     30            |
 |            14                   1.241824                     24            |
 |            15                   1.287550                     24            |
 |            16                   1.302436                     24            |
 |            17                   1.360350                      8            |
 |            18                   1.402216                     48            |
 |            19                   1.415897                     24            |
 |            20                   1.469345                     48            |
 |            21                   1.508189                     72            |
 |            22                   1.570796                      6            |
 |            23                   1.607190                     24            |
 |            24                   1.619140                     48            |
 |            25                   1.666081                     36            |
 |            26                   1.700437                     56            |
 |            27                   1.711736                     24            |
 |            28                   1.756204                     24            |
 |            29                   1.788829                     72            |
 |            30                   1.799573                     48            |
 |            31                   1.841922                     24            |
 |            32                   1.873055                     48            |
 |            33                   1.923825                     24            |
 |            34                   1.953653                     72            |
 |            35                   1.963495                     30            |
 |            36                   2.002380                     72            |
 +----------------------------------------------------------------------------+
 | The b-vectors are chosen automatically                                     |
 | The following shells are used:   1                                         |
 +----------------------------------------------------------------------------+
 |                        Shell   # Nearest-Neighbours                        |
 |                        -----   --------------------                        |
 |                          1               8                                 |
 +----------------------------------------------------------------------------+
 | Completeness relation is fully satisfied [Eq. (B1), PRB 56, 12847 (1997)]  |
 +----------------------------------------------------------------------------+
 |                  b_k Vectors (Ang^-1) and Weights (Ang^2)                  |
 |                  ----------------------------------------                  |
 |            No.         b_k(x)      b_k(y)      b_k(z)        w_b           |
 |            ---        --------------------------------     --------        |
 |             1        -0.196350    0.196350    0.196350     3.242278        |
 |             2         0.196350   -0.196350   -0.196350     3.242278        |
 |             3         0.196350   -0.196350    0.196350     3.242278        |
 |             4        -0.196350    0.196350   -0.196350     3.242278        |
 |             5         0.196350    0.196350   -0.196350     3.242278        |
 |             6         0.196350    0.196350    0.196350     3.242278        |
 |             7        -0.196350   -0.196350    0.196350     3.242278        |
 |             8        -0.196350   -0.196350   -0.196350     3.242278        |
 +----------------------------------------------------------------------------+
 |                           b_k Directions (Ang^-1)                          |
 |                           -----------------------                          |
 |            No.           x           y           z                         |
 |            ---        --------------------------------                     |
 |             1        -0.196350    0.196350    0.196350                     |
 |             2         0.196350   -0.196350    0.196350                     |
 |             3         0.196350    0.196350   -0.196350                     |
 |             4         0.196350    0.196350    0.196350                     |
 +----------------------------------------------------------------------------+
  
 Time to get kmesh              1.164 (sec)
 *============================================================================*
 |                              MEMORY ESTIMATE                               |
 |         Maximum RAM allocated during each phase of the calculation         |
 *============================================================================*
 |                        Disentanglement          181.62 Mb                  |
 |                            Wannierise:            1.09 Mb                  |
 |                          plot_wannier:            1.09 Mb                  |
 *----------------------------------------------------------------------------*
  
 Reading restart information from file wannier90.chk :
 written on 19Jul2025 at 00:13:40 ... done

 Restarting Wannier90 from plotting routines ...

 *---------------------------------------------------------------------------*
 |                               PLOTTING                                    |
 *---------------------------------------------------------------------------*

 !!!! Kpoint grid does not include Gamma.  Interpolation may be incorrect. !!!!

 Calculating interpolated band-structure

 Time to calculate interpolated band structure       0.030 (sec)

 Time for plotting              0.184 (sec)
 Total Execution Time           1.421 (sec)

 *===========================================================================*
 |                             TIMING INFORMATION                            |
 *===========================================================================*
 |    Tag                                                Ncalls      Time (s)|
 |---------------------------------------------------------------------------|
 |kmesh: get                                        :         1         1.164|
 |plot: main                                        :         1         0.184|
 *---------------------------------------------------------------------------*

 All done: wannier90 exiting
      0.625  0.250  0.625     To: X       0.500  0.000  0.500   |
 *----------------------------------------------------------------------------*
 |  Plotting Hamiltonian in WF basis          :                 T             |
 *----------------------------------------------------------------------------*
 Time to read parameters        0.075 (sec)

 *---------------------------------- K-MESH ----------------------------------*
 +----------------------------------------------------------------------------+
 |                    Distance to Nearest-Neighbour Shells                    |
 |                    ------------------------------------                    |
 |          Shell             Distance (Ang^-1)          Multiplicity         |
 |          -----             -----------------          ------------         |
 |             1                   0.340087                      8            |
 |             2                   0.392699                      6            |
 |             3                   0.555360                     12            |
 |             4                   0.651218                     24            |
 |             5                   0.680175                      8            |
 |             6                   0.785398                      6            |
 |             7                   0.855868                     24            |
 |             8                   0.878102                     24            |
 |             9                   0.961912                     24            |
 |            10                   1.020262                     32            |
 |            11                   1.110721                     12            |
 |            12                   1.161620                     48            |
 |            13                   1.178097                     30            |
 |            14                   1.241824                     24            |
 |            15                   1.287550                     24            |
 |            16                   1.302436                     24            |
 |            17                   1.360350                      8            |
 |            18                   1.402216                     48            |
 |            19                   1.415897                     24            |
 |            20                   1.469345                     48            |
 |            21                   1.508189                     72            |
 |            22                   1.570796                      6            |
 |            23                   1.607190                     24            |
 |            24                   1.619140                     48            |
 |            25                   1.666081                     36            |
 |            26                   1.700437                     56            |
 |            27                   1.711736                     24            |
 |            28                   1.756204                     24            |
 |            29                   1.788829                     72            |
 |            30                   1.799573                     48            |
 |            31                   1.841922                     24            |
 |            32                   1.873055                     48            |
 |            33                   1.923825                     24            |
 |            34                   1.953653                     72            |
 |            35                   1.963495                     30            |
 |            36                   2.002380                     72            |
 +----------------------------------------------------------------------------+
 | The b-vectors are chosen automatically                                     |
 | The following shells are used:   1                                         |
 +----------------------------------------------------------------------------+
 |                        Shell   # Nearest-Neighbours                        |
 |                        -----   --------------------                        |
 |                          1               8                                 |
 +----------------------------------------------------------------------------+
 | Completeness relation is fully satisfied [Eq. (B1), PRB 56, 12847 (1997)]  |
 +----------------------------------------------------------------------------+
 |                  b_k Vectors (Ang^-1) and Weights (Ang^2)                  |
 |                  ----------------------------------------                  |
 |            No.         b_k(x)      b_k(y)      b_k(z)        w_b           |
 |            ---        --------------------------------     --------        |
 |             1        -0.196350    0.196350    0.196350     3.242278        |
 |             2         0.196350   -0.196350   -0.196350     3.242278        |
 |             3         0.196350   -0.196350    0.196350     3.242278        |
 |             4        -0.196350    0.196350   -0.196350     3.242278        |
 |             5         0.196350    0.196350   -0.196350     3.242278        |
 |             6         0.196350    0.196350    0.196350     3.242278        |
 |             7        -0.196350   -0.196350    0.196350     3.242278        |
 |             8        -0.196350   -0.196350   -0.196350     3.242278        |
 +----------------------------------------------------------------------------+
 |                           b_k Directions (Ang^-1)                          |
 |                           -----------------------                          |
 |            No.           x           y           z                         |
 |            ---        --------------------------------                     |
 |             1        -0.196350    0.196350    0.196350                     |
 |             2         0.196350   -0.196350    0.196350                     |
 |             3         0.196350    0.196350   -0.196350                     |
 |             4         0.196350    0.196350    0.196350                     |
 +----------------------------------------------------------------------------+
  
 Time to get kmesh              1.256 (sec)
 *============================================================================*
 |                              MEMORY ESTIMATE                               |
 |         Maximum RAM allocated during each phase of the calculation         |
 *============================================================================*
 |                        Disentanglement          181.62 Mb                  |
 |                            Wannierise:            1.09 Mb                  |
 |                          plot_wannier:            1.09 Mb                  |
 *----------------------------------------------------------------------------*
  
 Reading restart information from file wannier90.chk :
 written on 19Jul2025 at 00:13:40 ... done

 Restarting Wannier90 from plotting routines ...

 *---------------------------------------------------------------------------*
 |                               PLOTTING                                    |
 *---------------------------------------------------------------------------*

 !!!! Kpoint grid does not include Gamma.  Interpolation may be incorrect. !!!!

 Calculating interpolated band-structure

 Time to calculate interpolated band structure       0.030 (sec)

 Time for plotting              0.181 (sec)
 Total Execution Time           1.514 (sec)

 *===========================================================================*
 |                             TIMING INFORMATION                            |
 *===========================================================================*
 |    Tag                                                Ncalls      Time (s)|
 |---------------------------------------------------------------------------|
 |kmesh: get                                        :         1         1.256|
 |plot: main                                        :         1         0.181|
 *---------------------------------------------------------------------------*

 All done: wannier90 exiting
      0.625  0.250  0.625     To: X       0.500  0.000  0.500   |
 *----------------------------------------------------------------------------*
 |  Plotting Hamiltonian in WF basis          :                 T             |
 *----------------------------------------------------------------------------*
 Time to read parameters        0.080 (sec)

 *---------------------------------- K-MESH ----------------------------------*
 +----------------------------------------------------------------------------+
 |                    Distance to Nearest-Neighbour Shells                    |
 |                    ------------------------------------                    |
 |          Shell             Distance (Ang^-1)          Multiplicity         |
 |          -----             -----------------          ------------         |
 |             1                   0.340087                      8            |
 |             2                   0.392699                      6            |
 |             3                   0.555360                     12            |
 |             4                   0.651218                     24            |
 |             5                   0.680175                      8            |
 |             6                   0.785398                      6            |
 |             7                   0.855868                     24            |
 |             8                   0.878102                     24            |
 |             9                   0.961912                     24            |
 |            10                   1.020262                     32            |
 |            11                   1.110721                     12            |
 |            12                   1.161620                     48            |
 |            13                   1.178097                     30            |
 |            14                   1.241824                     24            |
 |            15                   1.287550                     24            |
 |            16                   1.302436                     24            |
 |            17                   1.360350                      8            |
 |            18                   1.402216                     48            |
 |            19                   1.415897                     24            |
 |            20                   1.469345                     48            |
 |            21                   1.508189                     72            |
 |            22                   1.570796                      6            |
 |            23                   1.607190                     24            |
 |            24                   1.619140                     48            |
 |            25                   1.666081                     36            |
 |            26                   1.700437                     56            |
 |            27                   1.711736                     24            |
 |            28                   1.756204                     24            |
 |            29                   1.788829                     72            |
 |            30                   1.799573                     48            |
 |            31                   1.841922                     24            |
 |            32                   1.873055                     48            |
 |            33                   1.923825                     24            |
 |            34                   1.953653                     72            |
 |            35                   1.963495                     30            |
 |            36                   2.002380                     72            |
 +----------------------------------------------------------------------------+
 | The b-vectors are chosen automatically                                     |
 | The following shells are used:   1                                         |
 +----------------------------------------------------------------------------+
 |                        Shell   # Nearest-Neighbours                        |
 |                        -----   --------------------                        |
 |                          1               8                                 |
 +----------------------------------------------------------------------------+
 | Completeness relation is fully satisfied [Eq. (B1), PRB 56, 12847 (1997)]  |
 +----------------------------------------------------------------------------+
 |                  b_k Vectors (Ang^-1) and Weights (Ang^2)                  |
 |                  ----------------------------------------                  |
 |            No.         b_k(x)      b_k(y)      b_k(z)        w_b           |
 |            ---        --------------------------------     --------        |
 |             1        -0.196350    0.196350    0.196350     3.242278        |
 |             2         0.196350   -0.196350   -0.196350     3.242278        |
 |             3         0.196350   -0.196350    0.196350     3.242278        |
 |             4        -0.196350    0.196350   -0.196350     3.242278        |
 |             5         0.196350    0.196350   -0.196350     3.242278        |
 |             6         0.196350    0.196350    0.196350     3.242278        |
 |             7        -0.196350   -0.196350    0.196350     3.242278        |
 |             8        -0.196350   -0.196350   -0.196350     3.242278        |
 +----------------------------------------------------------------------------+
 |                           b_k Directions (Ang^-1)                          |
 |                           -----------------------                          |
 |            No.           x           y           z                         |
 |            ---        --------------------------------                     |
 |             1        -0.196350    0.196350    0.196350                     |
 |             2         0.196350   -0.196350    0.196350                     |
 |             3         0.196350    0.196350   -0.196350                     |
 |             4         0.196350    0.196350    0.196350                     |
 +----------------------------------------------------------------------------+
  
 Time to get kmesh              1.271 (sec)
 *============================================================================*
 |                              MEMORY ESTIMATE                               |
 |         Maximum RAM allocated during each phase of the calculation         |
 *============================================================================*
 |                        Disentanglement          181.62 Mb                  |
 |                            Wannierise:            1.09 Mb                  |
 |                          plot_wannier:            1.09 Mb                  |
 *----------------------------------------------------------------------------*
  
 Reading restart information from file wannier90.chk :
 written on 19Jul2025 at 00:13:40 ... done

 Restarting Wannier90 from plotting routines ...

 *---------------------------------------------------------------------------*
 |                               PLOTTING                                    |
 *---------------------------------------------------------------------------*

 !!!! Kpoint grid does not include Gamma.  Interpolation may be incorrect. !!!!

 Calculating interpolated band-structure

 Time to calculate interpolated band structure       0.030 (sec)

 Time for plotting              0.182 (sec)
 Total Execution Time           1.533 (sec)

 *===========================================================================*
 |                             TIMING INFORMATION                            |
 *===========================================================================*
 |    Tag                                                Ncalls      Time (s)|
 |---------------------------------------------------------------------------|
 |kmesh: get                                        :         1         1.271|
 |plot: main                                        :         1         0.182|
 *---------------------------------------------------------------------------*

 All done: wannier90 exiting
      0.625  0.250  0.625     To: X       0.500  0.000  0.500   |
 *----------------------------------------------------------------------------*
 |  Plotting Hamiltonian in WF basis          :                 T             |
 *----------------------------------------------------------------------------*
 Time to read parameters        0.079 (sec)

 *---------------------------------- K-MESH ----------------------------------*
 +----------------------------------------------------------------------------+
 |                    Distance to Nearest-Neighbour Shells                    |
 |                    ------------------------------------                    |
 |          Shell             Distance (Ang^-1)          Multiplicity         |
 |          -----             -----------------          ------------         |
 |             1                   0.340087                      8            |
 |             2                   0.392699                      6            |
 |             3                   0.555360                     12            |
 |             4                   0.651218                     24            |
 |             5                   0.680175                      8            |
 |             6                   0.785398                      6            |
 |             7                   0.855868                     24            |
 |             8                   0.878102                     24            |
 |             9                   0.961912                     24            |
 |            10                   1.020262                     32            |
 |            11                   1.110721                     12            |
 |            12                   1.161620                     48            |
 |            13                   1.178097                     30            |
 |            14                   1.241824                     24            |
 |            15                   1.287550                     24            |
 |            16                   1.302436                     24            |
 |            17                   1.360350                      8            |
 |            18                   1.402216                     48            |
 |            19                   1.415897                     24            |
 |            20                   1.469345                     48            |
 |            21                   1.508189                     72            |
 |            22                   1.570796                      6            |
 |            23                   1.607190                     24            |
 |            24                   1.619140                     48            |
 |            25                   1.666081                     36            |
 |            26                   1.700437                     56            |
 |            27                   1.711736                     24            |
 |            28                   1.756204                     24            |
 |            29                   1.788829                     72            |
 |            30                   1.799573                     48            |
 |            31                   1.841922                     24            |
 |            32                   1.873055                     48            |
 |            33                   1.923825                     24            |
 |            34                   1.953653                     72            |
 |            35                   1.963495                     30            |
 |            36                   2.002380                     72            |
 +----------------------------------------------------------------------------+
 | The b-vectors are chosen automatically                                     |
 | The following shells are used:   1                                         |
 +----------------------------------------------------------------------------+
 |                        Shell   # Nearest-Neighbours                        |
 |                        -----   --------------------                        |
 |                          1               8                                 |
 +----------------------------------------------------------------------------+
 | Completeness relation is fully satisfied [Eq. (B1), PRB 56, 12847 (1997)]  |
 +----------------------------------------------------------------------------+
 |                  b_k Vectors (Ang^-1) and Weights (Ang^2)                  |
 |                  ----------------------------------------                  |
 |            No.         b_k(x)      b_k(y)      b_k(z)        w_b           |
 |            ---        --------------------------------     --------        |
 |             1        -0.196350    0.196350    0.196350     3.242278        |
 |             2         0.196350   -0.196350   -0.196350     3.242278        |
 |             3         0.196350   -0.196350    0.196350     3.242278        |
 |             4        -0.196350    0.196350   -0.196350     3.242278        |
 |             5         0.196350    0.196350   -0.196350     3.242278        |
 |             6         0.196350    0.196350    0.196350     3.242278        |
 |             7        -0.196350   -0.196350    0.196350     3.242278        |
 |             8        -0.196350   -0.196350   -0.196350     3.242278        |
 +----------------------------------------------------------------------------+
 |                           b_k Directions (Ang^-1)                          |
 |                           -----------------------                          |
 |            No.           x           y           z                         |
 |            ---        --------------------------------                     |
 |             1        -0.196350    0.196350    0.196350                     |
 |             2         0.196350   -0.196350    0.196350                     |
 |             3         0.196350    0.196350   -0.196350                     |
 |             4         0.196350    0.196350    0.196350                     |
 +----------------------------------------------------------------------------+
  
 Time to get kmesh              1.269 (sec)
 *============================================================================*
 |                              MEMORY ESTIMATE                               |
 |         Maximum RAM allocated during each phase of the calculation         |
 *============================================================================*
 |                        Disentanglement          181.62 Mb                  |
 |                            Wannierise:            1.09 Mb                  |
 |                          plot_wannier:            1.09 Mb                  |
 *----------------------------------------------------------------------------*
  
 Reading restart information from file wannier90.chk :
 written on 19Jul2025 at 00:13:40 ... done

 Restarting Wannier90 from plotting routines ...

 *---------------------------------------------------------------------------*
 |                               PLOTTING                                    |
 *---------------------------------------------------------------------------*

 !!!! Kpoint grid does not include Gamma.  Interpolation may be incorrect. !!!!

 Calculating interpolated band-structure

 Time to calculate interpolated band structure       0.030 (sec)

 Time for plotting              0.182 (sec)
 Total Execution Time           1.531 (sec)

 *===========================================================================*
[...]
 |             2         0.196350   -0.196350   -0.196350     3.242278        |
 |             3         0.196350   -0.196350    0.196350     3.242278        |
 |             4        -0.196350    0.196350   -0.196350     3.242278        |
 |             5         0.196350    0.196350   -0.196350     3.242278        |
 |             6         0.196350    0.196350    0.196350     3.242278        |
 |             7        -0.196350   -0.196350    0.196350     3.242278        |
 |             8        -0.196350   -0.196350   -0.196350     3.242278        |
 +----------------------------------------------------------------------------+
 |                           b_k Directions (Ang^-1)                          |
 |                           -----------------------                          |
 |            No.           x           y           z                         |
 |            ---        --------------------------------                     |
 |             1        -0.196350    0.196350    0.196350                     |
 |             2         0.196350   -0.196350    0.196350                     |
 |             3         0.196350    0.196350   -0.196350                     |
 |             4         0.196350    0.196350    0.196350                     |
 +----------------------------------------------------------------------------+
  
 Time to get kmesh              1.331 (sec)
 *============================================================================*
 |                              MEMORY ESTIMATE                               |
 |         Maximum RAM allocated during each phase of the calculation         |
 *============================================================================*
 |                        Disentanglement          181.62 Mb                  |
 |                            Wannierise:            1.09 Mb                  |
 |                          plot_wannier:            1.09 Mb                  |
 *----------------------------------------------------------------------------*
  
 Reading restart information from file wannier90.chk :
 written on 19Jul2025 at 00:13:40 ... done

 Restarting Wannier90 from plotting routines ...

 *---------------------------------------------------------------------------*
 |                               PLOTTING                                    |
 *---------------------------------------------------------------------------*

 !!!! Kpoint grid does not include Gamma.  Interpolation may be incorrect. !!!!

 Calculating interpolated band-structure

 Time to calculate interpolated band structure       0.030 (sec)

 Time for plotting              0.182 (sec)
 Total Execution Time           1.625 (sec)

 *===========================================================================*
 |                             TIMING INFORMATION                            |
 *===========================================================================*
 |    Tag                                                Ncalls      Time (s)|
 |---------------------------------------------------------------------------|
 |kmesh: get                                        :         1         1.331|
 |plot: main                                        :         1         0.182|
 *---------------------------------------------------------------------------*

 All done: wannier90 exiting
      0.625  0.250  0.625     To: X       0.500  0.000  0.500   |
 *----------------------------------------------------------------------------*
 |  Plotting Hamiltonian in WF basis          :                 T             |
 *----------------------------------------------------------------------------*
 Time to read parameters        0.110 (sec)

 *---------------------------------- K-MESH ----------------------------------*
 +----------------------------------------------------------------------------+
 |                    Distance to Nearest-Neighbour Shells                    |
 |                    ------------------------------------                    |
 |          Shell             Distance (Ang^-1)          Multiplicity         |
 |          -----             -----------------          ------------         |
 |             1                   0.340087                      8            |
 |             2                   0.392699                      6            |
 |             3                   0.555360                     12            |
 |             4                   0.651218                     24            |
 |             5                   0.680175                      8            |
 |             6                   0.785398                      6            |
 |             7                   0.855868                     24            |
 |             8                   0.878102                     24            |
 |             9                   0.961912                     24            |
 |            10                   1.020262                     32            |
 |            11                   1.110721                     12            |
 |            12                   1.161620                     48            |
 |            13                   1.178097                     30            |
 |            14                   1.241824                     24            |
 |            15                   1.287550                     24            |
 |            16                   1.302436                     24            |
 |            17                   1.360350                      8            |
 |            18                   1.402216                     48            |
 |            19                   1.415897                     24            |
 |            20                   1.469345                     48            |
 |            21                   1.508189                     72            |
 |            22                   1.570796                      6            |
 |            23                   1.607190                     24            |
 |            24                   1.619140                     48            |
 |            25                   1.666081                     36            |
 |            26                   1.700437                     56            |
 |            27                   1.711736                     24            |
 |            28                   1.756204                     24            |
 |            29                   1.788829                     72            |
 |            30                   1.799573                     48            |
 |            31                   1.841922                     24            |
 |            32                   1.873055                     48            |
 |            33                   1.923825                     24            |
 |            34                   1.953653                     72            |
 |            35                   1.963495                     30            |
 |            36                   2.002380                     72            |
 +----------------------------------------------------------------------------+
 | The b-vectors are chosen automatically                                     |
 | The following shells are used:   1                                         |
 +----------------------------------------------------------------------------+
 |                        Shell   # Nearest-Neighbours                        |
 |                        -----   --------------------                        |
 |                          1               8                                 |
 +----------------------------------------------------------------------------+
 | Completeness relation is fully satisfied [Eq. (B1), PRB 56, 12847 (1997)]  |
 +----------------------------------------------------------------------------+
 |                  b_k Vectors (Ang^-1) and Weights (Ang^2)                  |
 |                  ----------------------------------------                  |
 |            No.         b_k(x)      b_k(y)      b_k(z)        w_b           |
 |            ---        --------------------------------     --------        |
 |             1        -0.196350    0.196350    0.196350     3.242278        |
 |             2         0.196350   -0.196350   -0.196350     3.242278        |
 |             3         0.196350   -0.196350    0.196350     3.242278        |
 |             4        -0.196350    0.196350   -0.196350     3.242278        |
 |             5         0.196350    0.196350   -0.196350     3.242278        |
 |             6         0.196350    0.196350    0.196350     3.242278        |
 |             7        -0.196350   -0.196350    0.196350     3.242278        |
 |             8        -0.196350   -0.196350   -0.196350     3.242278        |
 +----------------------------------------------------------------------------+
 |                           b_k Directions (Ang^-1)                          |
 |                           -----------------------                          |
 |            No.           x           y           z                         |
 |            ---        --------------------------------                     |
 |             1        -0.196350    0.196350    0.196350                     |
 |             2         0.196350   -0.196350    0.196350                     |
 |             3         0.196350    0.196350   -0.196350                     |
 |             4         0.196350    0.196350    0.196350                     |
 +----------------------------------------------------------------------------+
  
 Time to get kmesh              1.328 (sec)
 *============================================================================*
 |                              MEMORY ESTIMATE                               |
 |         Maximum RAM allocated during each phase of the calculation         |
 *============================================================================*
 |                        Disentanglement          181.62 Mb                  |
 |                            Wannierise:            1.09 Mb                  |
 |                          plot_wannier:            1.09 Mb                  |
 *----------------------------------------------------------------------------*
  
 Reading restart information from file wannier90.chk :
 written on 19Jul2025 at 00:13:40 ... done

 Restarting Wannier90 from plotting routines ...

 *---------------------------------------------------------------------------*
 |                               PLOTTING                                    |
 *---------------------------------------------------------------------------*

 !!!! Kpoint grid does not include Gamma.  Interpolation may be incorrect. !!!!

 Calculating interpolated band-structure

 Time to calculate interpolated band structure       0.030 (sec)

 Time for plotting              0.182 (sec)
 Total Execution Time           1.621 (sec)

 *===========================================================================*
 |                             TIMING INFORMATION                            |
 *===========================================================================*
 |    Tag                                                Ncalls      Time (s)|
 |---------------------------------------------------------------------------|
 |kmesh: get                                        :         1         1.328|
 |plot: main                                        :         1         0.182|
 *---------------------------------------------------------------------------*

 All done: wannier90 exiting
      0.625  0.250  0.625     To: X       0.500  0.000  0.500   |
 *----------------------------------------------------------------------------*
 |  Plotting Hamiltonian in WF basis          :                 T             |
 *----------------------------------------------------------------------------*
 Time to read parameters        0.118 (sec)

 *---------------------------------- K-MESH ----------------------------------*
 +----------------------------------------------------------------------------+
 |                    Distance to Nearest-Neighbour Shells                    |
 |                    ------------------------------------                    |
 |          Shell             Distance (Ang^-1)          Multiplicity         |
 |          -----             -----------------          ------------         |
 |             1                   0.340087                      8            |
 |             2                   0.392699                      6            |
 |             3                   0.555360                     12            |
 |             4                   0.651218                     24            |
 |             5                   0.680175                      8            |
 |             6                   0.785398                      6            |
 |             7                   0.855868                     24            |
 |             8                   0.878102                     24            |
 |             9                   0.961912                     24            |
 |            10                   1.020262                     32            |
 |            11                   1.110721                     12            |
 |            12                   1.161620                     48            |
 |            13                   1.178097                     30            |
 |            14                   1.241824                     24            |
 |            15                   1.287550                     24            |
 |            16                   1.302436                     24            |
 |            17                   1.360350                      8            |
 |            18                   1.402216                     48            |
 |            19                   1.415897                     24            |
 |            20                   1.469345                     48            |
 |            21                   1.508189                     72            |
 |            22                   1.570796                      6            |
 |            23                   1.607190                     24            |
 |            24                   1.619140                     48            |
 |            25                   1.666081                     36            |
 |            26                   1.700437                     56            |
 |            27                   1.711736                     24            |
 |            28                   1.756204                     24            |
 |            29                   1.788829                     72            |
 |            30                   1.799573                     48            |
 |            31                   1.841922                     24            |
 |            32                   1.873055                     48            |
 |            33                   1.923825                     24            |
 |            34                   1.953653                     72            |
 |            35                   1.963495                     30            |
 |            36                   2.002380                     72            |
 +----------------------------------------------------------------------------+
 | The b-vectors are chosen automatically                                     |
 | The following shells are used:   1                                         |
 +----------------------------------------------------------------------------+
 |                        Shell   # Nearest-Neighbours                        |
 |                        -----   --------------------                        |
 |                          1               8                                 |
 +----------------------------------------------------------------------------+
 | Completeness relation is fully satisfied [Eq. (B1), PRB 56, 12847 (1997)]  |
 +----------------------------------------------------------------------------+
 |                  b_k Vectors (Ang^-1) and Weights (Ang^2)                  |
 |                  ----------------------------------------                  |
 |            No.         b_k(x)      b_k(y)      b_k(z)        w_b           |
 |            ---        --------------------------------     --------        |
 |             1        -0.196350    0.196350    0.196350     3.242278        |
 |             2         0.196350   -0.196350   -0.196350     3.242278        |
 |             3         0.196350   -0.196350    0.196350     3.242278        |
 |             4        -0.196350    0.196350   -0.196350     3.242278        |
 |             5         0.196350    0.196350   -0.196350     3.242278        |
 |             6         0.196350    0.196350    0.196350     3.242278        |
 |             7        -0.196350   -0.196350    0.196350     3.242278        |
 |             8        -0.196350   -0.196350   -0.196350     3.242278        |
 +----------------------------------------------------------------------------+
 |                           b_k Directions (Ang^-1)                          |
 |                           -----------------------                          |
 |            No.           x           y           z                         |
 |            ---        --------------------------------                     |
 |             1        -0.196350    0.196350    0.196350                     |
 |             2         0.196350   -0.196350    0.196350                     |
 |             3         0.196350    0.196350   -0.196350                     |
 |             4         0.196350    0.196350    0.196350                     |
 +----------------------------------------------------------------------------+
  
 Time to get kmesh              1.347 (sec)
 *============================================================================*
 |                              MEMORY ESTIMATE                               |
 |         Maximum RAM allocated during each phase of the calculation         |
 *============================================================================*
 |                        Disentanglement          181.62 Mb                  |
 |                            Wannierise:            1.09 Mb                  |
 |                          plot_wannier:            1.09 Mb                  |
 *----------------------------------------------------------------------------*
  
 Reading restart information from file wannier90.chk :
 written on 19Jul2025 at 00:13:40 ... done

 Restarting Wannier90 from plotting routines ...

 *---------------------------------------------------------------------------*
 |                               PLOTTING                                    |
 *---------------------------------------------------------------------------*

 !!!! Kpoint grid does not include Gamma.  Interpolation may be incorrect. !!!!

 Calculating interpolated band-structure

 Time to calculate interpolated band structure       0.030 (sec)

 Time for plotting              0.181 (sec)
 Total Execution Time           1.648 (sec)

 *===========================================================================*
 |                             TIMING INFORMATION                            |
 *===========================================================================*
 |    Tag                                                Ncalls      Time (s)|
 |---------------------------------------------------------------------------|
 |kmesh: get                                        :         1         1.347|
 |plot: main                                        :         1         0.181|
 *---------------------------------------------------------------------------*

 All done: wannier90 exiting
