       #
       # Generated by the Wannier90 code http://www.wannier.org
       # On 26Jul2025 at 02:32:09 
       #
CRYSTAL
PRIMVEC
   0.0000000   2.0000000   2.0000000
   2.0000000   0.0000000   2.0000000
   2.0000000   2.0000000   0.0000000
CONVVEC
   0.0000000   2.0000000   2.0000000
   2.0000000   0.0000000   2.0000000
   2.0000000   2.0000000   0.0000000
PRIMCOORD
     1  1
H       0.0000000   0.0000000   0.0000000


BEGIN_BLOCK_DATAGRID_3D
3D_field
BEGIN_DATAGRID_3D_UNKNOWN
    36    36    36
   -4.222222   -4.222222   -4.222222
   0.0000000   3.8888889   3.8888889
   3.8888889   0.0000000   3.8888889
   3.8888889   3.8888889   0.0000000
 -0.59513E-02 -0.63224E-02 -0.59767E-02 -0.50111E-02 -0.36035E-02 -0.19371E-02
 -0.25001E-03  0.11730E-02  0.21826E-02  0.29439E-02  0.38180E-02  0.49909E-02
  0.62962E-02  0.74737E-02  0.85450E-02  0.98836E-02  0.11953E-01  0.14892E-01
  0.18101E-01  0.20200E-01  0.19795E-01  0.16662E-01  0.12082E-01  0.77647E-02
  0.45415E-02  0.22283E-02  0.45065E-03 -0.85335E-03 -0.16510E-02 -0.20330E-02
 -0.20592E-02 -0.16644E-02 -0.82893E-03  0.36721E-03  0.19274E-02  0.39295E-02
 -0.63224E-02 -0.63916E-02 -0.57986E-02 -0.45296E-02 -0.27465E-02 -0.85649E-03
  0.70370E-03  0.17879E-02  0.26194E-02  0.35337E-02  0.46432E-02  0.57825E-02
  0.67917E-02  0.77780E-02  0.90540E-02  0.10921E-01  0.13538E-01  0.16707E-01
  0.19510E-01  0.20439E-01  0.18471E-01  0.14155E-01  0.92677E-02  0.52638E-02
  0.23491E-02  0.73409E-04 -0.17286E-02 -0.28995E-02 -0.34306E-02 -0.34895E-02
 -0.31217E-02 -0.22702E-02 -0.99529E-03  0.60358E-03  0.25851E-02  0.49660E-02
 -0.59767E-02 -0.57986E-02 -0.48808E-02 -0.32184E-02 -0.12699E-02  0.35533E-03
  0.14449E-02  0.22832E-02  0.32247E-02  0.42941E-02  0.52548E-02  0.60067E-02
  0.67924E-02  0.79505E-02  0.95796E-02  0.11597E-01  0.13968E-01  0.16462E-01
  0.18148E-01  0.17700E-01  0.14633E-01  0.10007E-01  0.54971E-02  0.19636E-02
 -0.74489E-03 -0.28767E-02 -0.42998E-02 -0.49060E-02 -0.48997E-02 -0.44887E-02
 -0.36560E-02 -0.23923E-02 -0.83995E-03  0.94466E-03  0.30664E-02  0.54047E-02
 -0.50111E-02 -0.45296E-02 -0.32184E-02 -0.14049E-02  0.21116E-03  0.12807E-02
  0.20744E-02  0.29898E-02  0.40232E-02  0.48618E-02  0.53821E-02  0.58855E-02
  0.67814E-02  0.81156E-02  0.95786E-02  0.10993E-01  0.12485E-01  0.13907E-01
  0.14343E-01  0.12754E-01  0.91660E-02  0.48076E-02  0.93737E-03 -0.20571E-02
 -0.43121E-02 -0.58104E-02 -0.64445E-02 -0.63918E-02 -0.59658E-02 -0.52370E-02
 -0.41237E-02 -0.27083E-02 -0.11496E-02  0.59000E-03  0.25816E-02  0.45145E-02
 -0.36035E-02 -0.27465E-02 -0.12699E-02  0.21116E-03  0.12481E-02  0.20110E-02
  0.28785E-02  0.38448E-02  0.45809E-02  0.49525E-02  0.52416E-02  0.58312E-02
  0.67726E-02  0.77388E-02  0.84355E-02  0.89650E-02  0.95592E-02  0.99159E-02
  0.91461E-02  0.66746E-02  0.30013E-02 -0.72759E-03 -0.37402E-02 -0.59311E-02
 -0.73687E-02 -0.80342E-02 -0.80525E-02 -0.77223E-02 -0.71743E-02 -0.62934E-02
 -0.50528E-02 -0.36328E-02 -0.21318E-02 -0.46964E-03  0.12707E-02  0.26351E-02
 -0.19371E-02 -0.85649E-03  0.35533E-03  0.12807E-02  0.20110E-02  0.28530E-02
  0.37522E-02  0.43617E-02  0.45912E-02  0.47550E-02  0.51528E-02  0.57298E-02
  0.61984E-02  0.63671E-02  0.63110E-02  0.62279E-02  0.60625E-02  0.53091E-02
  0.34093E-02  0.42898E-03 -0.28555E-02 -0.56355E-02 -0.76377E-02 -0.89658E-02
 -0.97134E-02 -0.99539E-02 -0.98554E-02 -0.95183E-02 -0.88295E-02 -0.76878E-02
 -0.62377E-02 -0.46963E-02 -0.31020E-02 -0.14614E-02 -0.32146E-04  0.76618E-03
 -0.25001E-03  0.70370E-03  0.14449E-02  0.20744E-02  0.28785E-02  0.37522E-02
  0.42682E-02  0.43280E-02  0.43408E-02  0.46294E-02  0.49930E-02  0.50442E-02
  0.47254E-02  0.42810E-02  0.38625E-02  0.33146E-02  0.22690E-02  0.40898E-03
 -0.22194E-02 -0.51056E-02 -0.76117E-02 -0.94486E-02 -0.10733E-01 -0.11645E-01
 -0.12222E-01 -0.12449E-01 -0.12305E-01 -0.11687E-01 -0.10493E-01 -0.88348E-02
 -0.69871E-02 -0.51402E-02 -0.33606E-02 -0.17991E-02 -0.73769E-03 -0.38785E-03
  0.11730E-02  0.17879E-02  0.22832E-02  0.29898E-02  0.38448E-02  0.43617E-02
  0.43280E-02  0.41580E-02  0.42881E-02  0.45167E-02  0.43093E-02  0.35752E-02
  0.27360E-02  0.20683E-02  0.13258E-02  0.56645E-04 -0.19389E-02 -0.44876E-02
 -0.71717E-02 -0.95468E-02 -0.11395E-01 -0.12817E-01 -0.14005E-01 -0.14971E-01
 -0.15543E-01 -0.15544E-01 -0.14870E-01 -0.13495E-01 -0.11540E-01 -0.92780E-02
 -0.69834E-02 -0.48315E-02 -0.29829E-02 -0.16389E-02 -0.93347E-03 -0.88499E-03
  0.21826E-02  0.26194E-02  0.32247E-02  0.40232E-02  0.45809E-02  0.45912E-02
  0.43408E-02  0.42881E-02  0.43423E-02  0.39626E-02  0.29587E-02  0.17664E-02
  0.79058E-03 -0.17172E-03 -0.16338E-02 -0.37838E-02 -0.63588E-02 -0.89710E-02
 -0.11354E-01 -0.13403E-01 -0.15171E-01 -0.16768E-01 -0.18150E-01 -0.19049E-01
 -0.19159E-01 -0.18363E-01 -0.16745E-01 -0.14503E-01 -0.11893E-01 -0.91760E-02
 -0.65740E-02 -0.42926E-02 -0.25477E-02 -0.14747E-02 -0.10671E-02 -0.13109E-02
  0.29439E-02  0.35337E-02  0.42941E-02  0.48618E-02  0.49525E-02  0.47550E-02
  0.46294E-02  0.45167E-02  0.39626E-02  0.27790E-02  0.13561E-02  0.11291E-03
 -0.11111E-02 -0.28270E-02 -0.52045E-02 -0.79061E-02 -0.10541E-01 -0.12996E-01
 -0.15325E-01 -0.17560E-01 -0.19675E-01 -0.21525E-01 -0.22783E-01 -0.23068E-01
 -0.22223E-01 -0.20406E-01 -0.17914E-01 -0.15027E-01 -0.11979E-01 -0.89789E-02
 -0.62303E-02 -0.39546E-02 -0.23593E-02 -0.15411E-02 -0.14878E-02 -0.22114E-02
  0.38180E-02  0.46432E-02  0.52548E-02  0.53821E-02  0.52416E-02  0.51528E-02
  0.49930E-02  0.43093E-02  0.29587E-02  0.13561E-02 -0.75171E-04 -0.14982E-02
 -0.34447E-02 -0.60871E-02 -0.90251E-02 -0.11812E-01 -0.14409E-01 -0.17027E-01
 -0.19750E-01 -0.22447E-01 -0.24864E-01 -0.26627E-01 -0.27310E-01 -0.26689E-01
 -0.24896E-01 -0.22261E-01 -0.19083E-01 -0.15612E-01 -0.12112E-01 -0.88254E-02
 -0.59388E-02 -0.36482E-02 -0.21853E-02 -0.17064E-02 -0.22147E-02 -0.36314E-02
  0.49909E-02  0.57825E-02  0.60067E-02  0.58855E-02  0.58312E-02  0.57298E-02
  0.50442E-02  0.35752E-02  0.17664E-02  0.11291E-03 -0.14982E-02 -0.36106E-02
 -0.64474E-02 -0.96203E-02 -0.12640E-01 -0.15466E-01 -0.18400E-01 -0.21607E-01
 -0.24937E-01 -0.28060E-01 -0.30562E-01 -0.31986E-01 -0.32014E-01 -0.30659E-01
 -0.28164E-01 -0.24760E-01 -0.20677E-01 -0.16297E-01 -0.12078E-01 -0.83220E-02
 -0.51705E-02 -0.28296E-02 -0.16089E-02 -0.16809E-02 -0.29454E-02 -0.51919E-02
  0.62962E-02  0.67917E-02  0.67924E-02  0.67814E-02  0.67726E-02  0.61984E-02
  0.47254E-02  0.27360E-02  0.79058E-03 -0.11111E-02 -0.34447E-02 -0.64474E-02
 -0.97874E-02 -0.13008E-01 -0.16080E-01 -0.19345E-01 -0.23044E-01 -0.27055E-01
 -0.31023E-01 -0.34507E-01 -0.37020E-01 -0.38147E-01 -0.37721E-01 -0.35796E-01
 -0.32441E-01 -0.27769E-01 -0.22197E-01 -0.16462E-01 -0.11228E-01 -0.68073E-02
 -0.33479E-02 -0.11171E-02 -0.39767E-03 -0.12180E-02 -0.33842E-02 -0.67396E-02
  0.74737E-02  0.77780E-02  0.79505E-02  0.81156E-02  0.77388E-02  0.63671E-02
  0.42810E-02  0.20683E-02 -0.17172E-03 -0.28270E-02 -0.60871E-02 -0.96203E-02
 -0.13008E-01 -0.16273E-01 -0.19818E-01 -0.23963E-01 -0.28648E-01 -0.33525E-01
 -0.38137E-01 -0.41998E-01 -0.44634E-01 -0.45671E-01 -0.44843E-01 -0.41932E-01
 -0.36886E-01 -0.30116E-01 -0.22554E-01 -0.15247E-01 -0.88974E-02 -0.38447E-02
 -0.33071E-03  0.14299E-02  0.13899E-02 -0.34944E-03 -0.37373E-02 -0.87850E-02
  0.85450E-02  0.90540E-02  0.95796E-02  0.95786E-02  0.84355E-02  0.63110E-02
  0.38625E-02  0.13258E-02 -0.16338E-02 -0.52045E-02 -0.90251E-02 -0.12640E-01
 -0.16080E-01 -0.19818E-01 -0.24279E-01 -0.29514E-01 -0.35221E-01 -0.40947E-01
 -0.46256E-01 -0.50756E-01 -0.53958E-01 -0.55102E-01 -0.53300E-01 -0.48116E-01
 -0.40071E-01 -0.30500E-01 -0.20844E-01 -0.12102E-01 -0.48726E-02  0.39962E-03
  0.34673E-02  0.44059E-02  0.34064E-02  0.42613E-03 -0.47434E-02 -0.12035E-01
  0.98836E-02  0.10921E-01  0.11597E-01  0.10993E-01  0.89650E-02  0.62279E-02
  0.33146E-02  0.56645E-04 -0.37838E-02 -0.79061E-02 -0.11812E-01 -0.15466E-01
 -0.19345E-01 -0.23963E-01 -0.29514E-01 -0.35822E-01 -0.42477E-01 -0.49122E-01
 -0.55644E-01 -0.61778E-01 -0.66334E-01 -0.67194E-01 -0.62687E-01 -0.53140E-01
 -0.40811E-01 -0.28223E-01 -0.16810E-01 -0.71084E-02  0.40160E-03  0.52341E-02
  0.73999E-02  0.73149E-02  0.50933E-02  0.37292E-03 -0.70347E-02 -0.16742E-01
  0.11953E-01  0.13538E-01  0.13968E-01  0.12485E-01  0.95592E-02  0.60625E-02
  0.22690E-02 -0.19389E-02 -0.63588E-02 -0.10541E-01 -0.14409E-01 -0.18400E-01
 -0.23044E-01 -0.28648E-01 -0.35221E-01 -0.42477E-01 -0.50131E-01 -0.58399E-01
 -0.67680E-01 -0.76991E-01 -0.82952E-01 -0.81495E-01 -0.71328E-01 -0.55355E-01
 -0.38293E-01 -0.23228E-01 -0.10790E-01 -0.87427E-03  0.61441E-02  0.99771E-02
  0.11040E-01  0.97824E-02  0.59445E-02 -0.92533E-03 -0.10704E-01 -0.23083E-01
  0.14892E-01  0.16707E-01  0.16462E-01  0.13907E-01  0.99159E-02  0.53091E-02
  0.40898E-03 -0.44876E-02 -0.89710E-02 -0.12996E-01 -0.17027E-01 -0.21607E-01
 -0.27055E-01 -0.33525E-01 -0.40947E-01 -0.49122E-01 -0.58399E-01 -0.69921E-01
 -0.83798E-01 -0.96514E-01 -0.10149E+00 -0.93948E-01 -0.75426E-01 -0.52668E-01
 -0.32065E-01 -0.15862E-01 -0.33863E-02  0.59225E-02  0.11816E-01  0.14407E-01
  0.14315E-01  0.11623E-01  0.57920E-02 -0.33657E-02 -0.15727E-01 -0.31908E-01
  0.18101E-01  0.19510E-01  0.18148E-01  0.14343E-01  0.91461E-02  0.34093E-02
 -0.22194E-02 -0.71717E-02 -0.11354E-01 -0.15325E-01 -0.19750E-01 -0.24937E-01
 -0.31023E-01 -0.38137E-01 -0.46256E-01 -0.55644E-01 -0.67680E-01 -0.83798E-01
 -0.10199E+00 -0.11499E+00 -0.11431E+00 -0.97514E-01 -0.70826E-01 -0.43868E-01
 -0.22427E-01 -0.67505E-02  0.48268E-02  0.12871E-01  0.17317E-01  0.18630E-01
  0.17241E-01  0.12782E-01  0.48039E-02 -0.66794E-02 -0.22317E-01 -0.43802E-01
  0.20200E-01  0.20439E-01  0.17700E-01  0.12754E-01  0.66746E-02  0.42898E-03
 -0.51056E-02 -0.95468E-02 -0.13403E-01 -0.17560E-01 -0.22447E-01 -0.28060E-01
 -0.34507E-01 -0.41998E-01 -0.50756E-01 -0.61778E-01 -0.76991E-01 -0.96514E-01
 -0.11499E+00 -0.12268E+00 -0.11265E+00 -0.87326E-01 -0.56699E-01 -0.30123E-01
 -0.10653E-01  0.32850E-02  0.13336E-01  0.19729E-01  0.22639E-01  0.22626E-01
  0.19687E-01  0.13284E-01  0.32729E-02 -0.10605E-01 -0.30066E-01 -0.56692E-01
  0.19795E-01  0.18471E-01  0.14633E-01  0.91660E-02  0.30013E-02 -0.28555E-02
 -0.76117E-02 -0.11395E-01 -0.15171E-01 -0.19675E-01 -0.24864E-01 -0.30562E-01
 -0.37020E-01 -0.44634E-01 -0.53958E-01 -0.66334E-01 -0.82952E-01 -0.10149E+00
 -0.11431E+00 -0.11265E+00 -0.94135E-01 -0.65484E-01 -0.36920E-01 -0.14518E-01
  0.15973E-02  0.13375E-01  0.21574E-01  0.26165E-01  0.27558E-01  0.26115E-01
  0.21468E-01  0.13257E-01  0.15492E-02 -0.14472E-01 -0.36847E-01 -0.65446E-01
  0.16662E-01  0.14155E-01  0.10007E-01  0.48076E-02 -0.72759E-03 -0.56355E-02
 -0.94486E-02 -0.12817E-01 -0.16768E-01 -0.21525E-01 -0.26627E-01 -0.31986E-01
 -0.38147E-01 -0.45671E-01 -0.55102E-01 -0.67194E-01 -0.81495E-01 -0.93948E-01
 -0.97514E-01 -0.87326E-01 -0.65484E-01 -0.39706E-01 -0.17076E-01  0.15912E-03
  0.13113E-01  0.22747E-01  0.28953E-01  0.31793E-01  0.31755E-01  0.28836E-01
  0.22573E-01  0.12967E-01  0.12882E-03 -0.16993E-01 -0.39597E-01 -0.65417E-01
  0.12082E-01  0.92677E-02  0.54971E-02  0.93737E-03 -0.37402E-02 -0.76377E-02
 -0.10733E-01 -0.14005E-01 -0.18150E-01 -0.22783E-01 -0.27310E-01 -0.32014E-01
 -0.37721E-01 -0.44843E-01 -0.53300E-01 -0.62687E-01 -0.71328E-01 -0.75426E-01
 -0.70826E-01 -0.56699E-01 -0.36920E-01 -0.17076E-01 -0.42817E-03  0.12825E-01
  0.23286E-01  0.30797E-01  0.35059E-01  0.36373E-01  0.35027E-01  0.30712E-01
  0.23162E-01  0.12723E-01 -0.45237E-03 -0.17027E-01 -0.36846E-01 -0.56635E-01
  0.77647E-02  0.52638E-02  0.19636E-02 -0.20571E-02 -0.59311E-02 -0.89658E-02
 -0.11645E-01 -0.14971E-01 -0.19049E-01 -0.23068E-01 -0.26689E-01 -0.30659E-01
 -0.35796E-01 -0.41932E-01 -0.48116E-01 -0.53140E-01 -0.55355E-01 -0.52668E-01
 -0.43868E-01 -0.30123E-01 -0.14518E-01  0.15912E-03  0.12825E-01  0.23418E-01
  0.31674E-01  0.37115E-01  0.39706E-01  0.39746E-01  0.37194E-01  0.31710E-01
  0.23366E-01  0.12710E-01  0.41095E-04 -0.14586E-01 -0.30112E-01 -0.43767E-01
  0.45415E-02  0.23491E-02 -0.74489E-03 -0.43121E-02 -0.73687E-02 -0.97134E-02
 -0.12222E-01 -0.15543E-01 -0.19159E-01 -0.22223E-01 -0.24896E-01 -0.28164E-01
 -0.32441E-01 -0.36886E-01 -0.40071E-01 -0.40811E-01 -0.38293E-01 -0.32065E-01
 -0.22427E-01 -0.10653E-01  0.15973E-02  0.13113E-01  0.23286E-01  0.31674E-01
  0.37815E-01  0.41470E-01  0.42714E-01  0.41604E-01  0.37972E-01  0.31730E-01
  0.23192E-01  0.12914E-01  0.13838E-02 -0.10789E-01 -0.22420E-01 -0.31903E-01
  0.22283E-02  0.73409E-04 -0.28767E-02 -0.58104E-02 -0.80342E-02 -0.99539E-02
 -0.12449E-01 -0.15544E-01 -0.18363E-01 -0.20406E-01 -0.22261E-01 -0.24760E-01
 -0.27769E-01 -0.30116E-01 -0.30500E-01 -0.28223E-01 -0.23228E-01 -0.15862E-01
 -0.67505E-02  0.32850E-02  0.13375E-01  0.22747E-01  0.30797E-01  0.37115E-01
  0.41470E-01  0.43727E-01  0.43786E-01  0.41584E-01  0.37169E-01  0.30729E-01
  0.22584E-01  0.13176E-01  0.31079E-02 -0.68466E-02 -0.15829E-01 -0.23080E-01
  0.45065E-03 -0.17286E-02 -0.42998E-02 -0.64445E-02 -0.80525E-02 -0.98554E-02
 -0.12305E-01 -0.14870E-01 -0.16745E-01 -0.17914E-01 -0.19083E-01 -0.20677E-01
 -0.22197E-01 -0.22554E-01 -0.20844E-01 -0.16810E-01 -0.10790E-01 -0.33863E-02
  0.48268E-02  0.13336E-01  0.21574E-01  0.28953E-01  0.35059E-01  0.39706E-01
  0.42714E-01  0.43786E-01  0.42721E-01  0.39654E-01  0.34925E-01  0.28799E-01
  0.21461E-01  0.13256E-01  0.47605E-02 -0.34102E-02 -0.10740E-01 -0.16731E-01
 -0.85335E-03 -0.28995E-02 -0.49060E-02 -0.63918E-02 -0.77223E-02 -0.95183E-02
 -0.11687E-01 -0.13495E-01 -0.14503E-01 -0.15027E-01 -0.15612E-01 -0.16297E-01
 -0.16462E-01 -0.15247E-01 -0.12102E-01 -0.71084E-02 -0.87427E-03  0.59225E-02
  0.12871E-01  0.19729E-01  0.26165E-01  0.31793E-01  0.36373E-01  0.39746E-01
  0.41604E-01  0.41584E-01  0.39654E-01  0.36187E-01  0.31595E-01  0.26059E-01
  0.19711E-01  0.12864E-01  0.59129E-02 -0.82903E-03 -0.70063E-02 -0.12036E-01
 -0.16510E-02 -0.34306E-02 -0.48997E-02 -0.59658E-02 -0.71743E-02 -0.88295E-02
 -0.10493E-01 -0.11540E-01 -0.11893E-01 -0.11979E-01 -0.12112E-01 -0.12078E-01
 -0.11228E-01 -0.88974E-02 -0.48726E-02  0.40160E-03  0.61441E-02  0.11816E-01
  0.17317E-01  0.22639E-01  0.27558E-01  0.31755E-01  0.35027E-01  0.37194E-01
  0.37972E-01  0.37169E-01  0.34925E-01  0.31595E-01  0.27438E-01  0.22596E-01
  0.17282E-01  0.11755E-01  0.61404E-02  0.52446E-03 -0.47011E-02 -0.88113E-02
 -0.20330E-02 -0.34895E-02 -0.44887E-02 -0.52370E-02 -0.62934E-02 -0.76878E-02
 -0.88348E-02 -0.92780E-02 -0.91760E-02 -0.89789E-02 -0.88254E-02 -0.83220E-02
 -0.68073E-02 -0.38447E-02  0.39962E-03  0.52341E-02  0.99771E-02  0.14407E-01
  0.18630E-01  0.22626E-01  0.26115E-01  0.28836E-01  0.30712E-01  0.31710E-01
  0.31730E-01  0.30729E-01  0.28799E-01  0.26059E-01  0.22596E-01  0.18582E-01
  0.14284E-01  0.98491E-02  0.52343E-02  0.53256E-03 -0.37188E-02 -0.67816E-02
 -0.20592E-02 -0.31217E-02 -0.36560E-02 -0.41237E-02 -0.50528E-02 -0.62377E-02
 -0.69871E-02 -0.69834E-02 -0.65740E-02 -0.62303E-02 -0.59388E-02 -0.51705E-02
 -0.33479E-02 -0.33071E-03  0.34673E-02  0.73999E-02  0.11040E-01  0.14315E-01
  0.17241E-01  0.19687E-01  0.21468E-01  0.22573E-01  0.23162E-01  0.23366E-01
  0.23192E-01  0.22584E-01  0.21461E-01  0.19711E-01  0.17282E-01  0.14284E-01
  0.10915E-01  0.72781E-02  0.34327E-02 -0.32342E-03 -0.33843E-02 -0.52377E-02
 -0.16644E-02 -0.22702E-02 -0.23923E-02 -0.27083E-02 -0.36328E-02 -0.46963E-02
 -0.51402E-02 -0.48315E-02 -0.42926E-02 -0.39546E-02 -0.36482E-02 -0.28296E-02
 -0.11171E-02  0.14299E-02  0.44059E-02  0.73149E-02  0.97824E-02  0.11623E-01
  0.12782E-01  0.13284E-01  0.13257E-01  0.12967E-01  0.12723E-01  0.12710E-01
  0.12914E-01  0.13176E-01  0.13256E-01  0.12864E-01  0.11755E-01  0.98491E-02
  0.72781E-02  0.43144E-02  0.13230E-02 -0.12368E-02 -0.29357E-02 -0.36860E-02
 -0.82893E-03 -0.99529E-03 -0.83995E-03 -0.11496E-02 -0.21318E-02 -0.31020E-02
 -0.33606E-02 -0.29829E-02 -0.25477E-02 -0.23593E-02 -0.21853E-02 -0.16089E-02
 -0.39767E-03  0.13899E-02  0.34064E-02  0.50933E-02  0.59445E-02  0.57920E-02
  0.48039E-02  0.32729E-02  0.15492E-02  0.12882E-03 -0.45237E-03  0.41095E-04
  0.13838E-02  0.31079E-02  0.47605E-02  0.59129E-02  0.61404E-02  0.52343E-02
  0.34327E-02  0.13230E-02 -0.49949E-03 -0.16775E-02 -0.21712E-02 -0.22754E-02
  0.36721E-03  0.60358E-03  0.94466E-03  0.59000E-03 -0.46964E-03 -0.14614E-02
 -0.17991E-02 -0.16389E-02 -0.14747E-02 -0.15411E-02 -0.17064E-02 -0.16809E-02
 -0.12180E-02 -0.34944E-03  0.42613E-03  0.37292E-03 -0.92533E-03 -0.33657E-02
 -0.66794E-02 -0.10605E-01 -0.14472E-01 -0.16993E-01 -0.17027E-01 -0.14586E-01
 -0.10789E-01 -0.68466E-02 -0.34102E-02 -0.82903E-03  0.52446E-03  0.53256E-03
 -0.32342E-03 -0.12368E-02 -0.16775E-02 -0.16319E-02 -0.14074E-02 -0.13518E-02
  0.19274E-02  0.25851E-02  0.30664E-02  0.25816E-02  0.12707E-02 -0.32146E-04
 -0.73769E-03 -0.93347E-03 -0.10671E-02 -0.14878E-02 -0.22147E-02 -0.29454E-02
 -0.33842E-02 -0.37373E-02 -0.47434E-02 -0.70347E-02 -0.10704E-01 -0.15727E-01
 -0.22317E-01 -0.30066E-01 -0.36847E-01 -0.39597E-01 -0.36846E-01 -0.30112E-01
 -0.22420E-01 -0.15829E-01 -0.10740E-01 -0.70063E-02 -0.47011E-02 -0.37188E-02
 -0.33843E-02 -0.29357E-02 -0.21712E-02 -0.14074E-02 -0.97010E-03 -0.85318E-03
  0.39295E-02  0.49660E-02  0.54047E-02  0.45145E-02  0.26351E-02  0.76618E-03
 -0.38785E-03 -0.88499E-03 -0.13109E-02 -0.22114E-02 -0.36314E-02 -0.51919E-02
 -0.67396E-02 -0.87850E-02 -0.12035E-01 -0.16742E-01 -0.23083E-01 -0.31908E-01
 -0.43802E-01 -0.56692E-01 -0.65446E-01 -0.65417E-01 -0.56635E-01 -0.43767E-01
 -0.31903E-01 -0.23080E-01 -0.16731E-01 -0.12036E-01 -0.88113E-02 -0.67816E-02
 -0.52377E-02 -0.36860E-02 -0.22754E-02 -0.13518E-02 -0.85318E-03 -0.27142E-03
 -0.63224E-02 -0.63916E-02 -0.57986E-02 -0.45296E-02 -0.27465E-02 -0.85649E-03
  0.70370E-03  0.17879E-02  0.26194E-02  0.35337E-02  0.46432E-02  0.57825E-02
  0.67917E-02  0.77780E-02  0.90540E-02  0.10921E-01  0.13538E-01  0.16707E-01
  0.19510E-01  0.20439E-01  0.18471E-01  0.14155E-01  0.92677E-02  0.52638E-02
  0.23491E-02  0.73409E-04 -0.17286E-02 -0.28995E-02 -0.34306E-02 -0.34895E-02
 -0.31217E-02 -0.22702E-02 -0.99529E-03  0.60358E-03  0.25851E-02  0.49660E-02
 -0.63916E-02 -0.62199E-02 -0.52527E-02 -0.35004E-02 -0.14476E-02  0.26387E-03
  0.14068E-02  0.22769E-02  0.32438E-02  0.43315E-02  0.53031E-02  0.60750E-02
  0.69063E-02  0.81313E-02  0.98504E-02  0.12030E-01  0.14698E-01  0.17596E-01
  0.19625E-01  0.19259E-01  0.15958E-01  0.10921E-01  0.60409E-02  0.22966E-02
 -0.48729E-03 -0.26413E-02 -0.40835E-02 -0.47107E-02 -0.47205E-02 -0.43163E-02
 -0.34740E-02 -0.21778E-02 -0.56983E-03  0.12966E-02  0.35398E-02  0.60378E-02
 -0.57986E-02 -0.52527E-02 -0.37759E-02 -0.17547E-02  0.33000E-04  0.11916E-02
  0.20173E-02  0.29623E-02  0.40325E-02  0.48867E-02  0.54132E-02  0.59768E-02
  0.70146E-02  0.85312E-02  0.10207E-01  0.11965E-01  0.14032E-01  0.16134E-01
  0.17009E-01  0.15328E-01  0.11170E-01  0.61105E-02  0.17388E-02 -0.14808E-02
 -0.38055E-02 -0.53398E-02 -0.60081E-02 -0.59793E-02 -0.55671E-02 -0.48378E-02
 -0.36909E-02 -0.22000E-02 -0.53121E-03  0.13611E-02  0.35700E-02  0.57608E-02
 -0.45296E-02 -0.35004E-02 -0.17547E-02 -0.22956E-04  0.11433E-02  0.19189E-02
  0.27844E-02  0.37997E-02  0.45910E-02  0.49718E-02  0.52824E-02  0.60068E-02
  0.71868E-02  0.83993E-02  0.93590E-02  0.10329E-01  0.11612E-01  0.12658E-01
  0.12155E-01  0.93357E-02  0.49395E-02  0.54103E-03 -0.28508E-02 -0.51870E-02
 -0.66886E-02 -0.74021E-02 -0.74465E-02 -0.71270E-02 -0.65896E-02 -0.56994E-02
 -0.43987E-02 -0.28709E-02 -0.12280E-02  0.62998E-03  0.26350E-02  0.42661E-02
 -0.27465E-02 -0.14476E-02  0.33000E-04  0.11433E-02  0.19088E-02  0.27194E-02
  0.36509E-02  0.43636E-02  0.46648E-02  0.48401E-02  0.52983E-02  0.60695E-02
  0.67962E-02  0.71878E-02  0.73830E-02  0.77367E-02  0.81644E-02  0.78551E-02
  0.59446E-02  0.25180E-02 -0.13311E-02 -0.45050E-02 -0.66911E-02 -0.81091E-02
 -0.89234E-02 -0.91962E-02 -0.90951E-02 -0.87544E-02 -0.80654E-02 -0.68876E-02
 -0.53498E-02 -0.36908E-02 -0.19466E-02 -0.89514E-04  0.16000E-02  0.25874E-02
 -0.85649E-03  0.26387E-03  0.11916E-02  0.19189E-02  0.27194E-02  0.35985E-02
  0.42110E-02  0.44003E-02  0.44796E-02  0.47959E-02  0.52605E-02  0.55175E-02
  0.54262E-02  0.51813E-02  0.50015E-02  0.47874E-02  0.40668E-02  0.23290E-02
 -0.44677E-03 -0.36115E-02 -0.63414E-02 -0.82940E-02 -0.96499E-02 -0.10631E-01
 -0.11245E-01 -0.11453E-01 -0.11267E-01 -0.10610E-01 -0.93662E-02 -0.76260E-02
 -0.56893E-02 -0.37584E-02 -0.18533E-02 -0.94486E-04  0.11558E-02  0.15571E-02
  0.70370E-03  0.14068E-02  0.20173E-02  0.27844E-02  0.36509E-02  0.42110E-02
  0.42797E-02  0.42120E-02  0.44018E-02  0.46926E-02  0.46167E-02  0.40847E-02
  0.34714E-02  0.30227E-02  0.24797E-02  0.13589E-02 -0.57482E-03 -0.31341E-02
 -0.58374E-02 -0.81961E-02 -0.10015E-01 -0.11442E-01 -0.12666E-01 -0.13645E-01
 -0.14168E-01 -0.14077E-01 -0.13306E-01 -0.11830E-01 -0.97657E-02 -0.74198E-02
 -0.51035E-02 -0.29539E-02 -0.10474E-02  0.41748E-03  0.11952E-02  0.11827E-02
  0.17879E-02  0.22769E-02  0.29623E-02  0.37997E-02  0.43636E-02  0.44003E-02
  0.42120E-02  0.42336E-02  0.43651E-02  0.40876E-02  0.32364E-02  0.22535E-02
  0.15171E-02  0.75839E-03 -0.59942E-03 -0.27292E-02 -0.52655E-02 -0.77375E-02
 -0.99143E-02 -0.11805E-01 -0.13516E-01 -0.15103E-01 -0.16427E-01 -0.17191E-01
 -0.17135E-01 -0.16192E-01 -0.14451E-01 -0.12096E-01 -0.94051E-02 -0.66928E-02
 -0.41814E-02 -0.19976E-02 -0.27877E-03  0.82092E-03  0.12250E-02  0.92357E-03
  0.26194E-02  0.32438E-02  0.40325E-02  0.45910E-02  0.46648E-02  0.44796E-02
  0.44018E-02  0.43651E-02  0.39127E-02  0.28586E-02  0.15995E-02  0.55325E-03
 -0.48107E-03 -0.20753E-02 -0.43901E-02 -0.69763E-02 -0.93515E-02 -0.11471E-01
 -0.13559E-01 -0.15711E-01 -0.17778E-01 -0.19463E-01 -0.20421E-01 -0.20387E-01
 -0.19320E-01 -0.17395E-01 -0.14872E-01 -0.11997E-01 -0.90059E-02 -0.61209E-02
 -0.35240E-02 -0.13831E-02  0.13733E-03  0.93875E-03  0.10055E-02  0.31339E-03
  0.35337E-02  0.43315E-02  0.48867E-02  0.49718E-02  0.48401E-02  0.47959E-02
  0.46926E-02  0.40876E-02  0.28586E-02  0.14127E-02  0.14321E-03 -0.11441E-02
 -0.29946E-02 -0.55422E-02 -0.82875E-02 -0.10720E-01 -0.12892E-01 -0.15205E-01
 -0.17804E-01 -0.20395E-01 -0.22504E-01 -0.23738E-01 -0.23863E-01 -0.22861E-01
 -0.20935E-01 -0.18365E-01 -0.15368E-01 -0.12110E-01 -0.87945E-02 -0.56485E-02
 -0.28807E-02 -0.69955E-03  0.68819E-03  0.11589E-02  0.70762E-03 -0.62386E-03
  0.46432E-02  0.53031E-02  0.54132E-02  0.52824E-02  0.52983E-02  0.52605E-02
  0.46167E-02  0.32364E-02  0.15995E-02  0.14321E-03 -0.13275E-02 -0.33649E-02
 -0.61095E-02 -0.90626E-02 -0.11699E-01 -0.14080E-01 -0.16670E-01 -0.19673E-01
 -0.22757E-01 -0.25369E-01 -0.27084E-01 -0.27683E-01 -0.27117E-01 -0.25506E-01
 -0.23055E-01 -0.19908E-01 -0.16185E-01 -0.12134E-01 -0.81258E-02 -0.44747E-02
 -0.13974E-02  0.85903E-03  0.20111E-02  0.19277E-02  0.71411E-03 -0.14438E-02
  0.57825E-02  0.60750E-02  0.59768E-02  0.60068E-02  0.60695E-02  0.55175E-02
  0.40847E-02  0.22535E-02  0.55325E-03 -0.11441E-02 -0.33649E-02 -0.62514E-02
 -0.93481E-02 -0.12191E-01 -0.14866E-01 -0.17822E-01 -0.21246E-01 -0.24818E-01
 -0.28011E-01 -0.30445E-01 -0.31904E-01 -0.32237E-01 -0.31375E-01 -0.29328E-01
 -0.26105E-01 -0.21750E-01 -0.16565E-01 -0.11162E-01 -0.61498E-02 -0.18689E-02
  0.14818E-02  0.36138E-02  0.42524E-02  0.33999E-02  0.12925E-02 -0.18899E-02
  0.67917E-02  0.69063E-02  0.70146E-02  0.71868E-02  0.67962E-02  0.54262E-02
  0.34714E-02  0.15171E-02 -0.48107E-03 -0.29946E-02 -0.61095E-02 -0.93481E-02
 -0.12319E-01 -0.15219E-01 -0.18534E-01 -0.22415E-01 -0.26518E-01 -0.30373E-01
 -0.33699E-01 -0.36321E-01 -0.37974E-01 -0.38320E-01 -0.37068E-01 -0.34012E-01
 -0.29100E-01 -0.22653E-01 -0.15474E-01 -0.85411E-02 -0.25373E-02  0.22311E-02
  0.55558E-02  0.72033E-02  0.70953E-02  0.53779E-02  0.21903E-02 -0.24767E-02
  0.77780E-02  0.81313E-02  0.85312E-02  0.83993E-02  0.71878E-02  0.51813E-02
  0.30227E-02  0.75839E-03 -0.20753E-02 -0.55422E-02 -0.90626E-02 -0.12191E-01
 -0.15219E-01 -0.18770E-01 -0.23043E-01 -0.27681E-01 -0.32239E-01 -0.36523E-01
 -0.40449E-01 -0.43728E-01 -0.45785E-01 -0.45899E-01 -0.43449E-01 -0.38197E-01
 -0.30549E-01 -0.21540E-01 -0.12437E-01 -0.42455E-02  0.24451E-02  0.73077E-02
  0.10164E-01  0.11031E-01  0.10059E-01  0.72812E-02  0.25433E-02 -0.41844E-02
  0.90540E-02  0.98504E-02  0.10207E-01  0.93590E-02  0.73830E-02  0.50015E-02
  0.24797E-02 -0.59942E-03 -0.43901E-02 -0.82875E-02 -0.11699E-01 -0.14866E-01
 -0.18534E-01 -0.23043E-01 -0.28100E-01 -0.33288E-01 -0.38470E-01 -0.43667E-01
 -0.48737E-01 -0.53098E-01 -0.55596E-01 -0.54776E-01 -0.49708E-01 -0.40787E-01
 -0.29643E-01 -0.18158E-01 -0.75976E-02  0.13756E-02  0.82671E-02  0.12707E-01
  0.14729E-01  0.14666E-01  0.12624E-01  0.83045E-02  0.14823E-02 -0.75446E-02
  0.10921E-01  0.12030E-01  0.11965E-01  0.10329E-01  0.77367E-02  0.47874E-02
  0.13589E-02 -0.27292E-02 -0.69763E-02 -0.10720E-01 -0.14080E-01 -0.17822E-01
 -0.22415E-01 -0.27681E-01 -0.33288E-01 -0.39166E-01 -0.45432E-01 -0.52203E-01
 -0.59282E-01 -0.65477E-01 -0.68281E-01 -0.65071E-01 -0.55281E-01 -0.41191E-01
 -0.26248E-01 -0.12735E-01 -0.12861E-02  0.79299E-02  0.14454E-01  0.18035E-01
  0.19051E-01  0.17895E-01  0.14333E-01  0.79341E-02 -0.11958E-02 -0.12607E-01
  0.13538E-01  0.14698E-01  0.14032E-01  0.11612E-01  0.81644E-02  0.40668E-02
 -0.57482E-03 -0.52655E-02 -0.93515E-02 -0.12892E-01 -0.16670E-01 -0.21246E-01
 -0.26518E-01 -0.32239E-01 -0.38470E-01 -0.45432E-01 -0.53450E-01 -0.62948E-01
 -0.73438E-01 -0.81985E-01 -0.83720E-01 -0.75370E-01 -0.58486E-01 -0.38454E-01
 -0.20207E-01 -0.54413E-02  0.62736E-02  0.15149E-01  0.20805E-01  0.23312E-01
  0.23230E-01  0.20632E-01  0.15024E-01  0.62713E-02 -0.53344E-02 -0.20035E-01
  0.16707E-01  0.17596E-01  0.16134E-01  0.12658E-01  0.78551E-02  0.23290E-02
 -0.31341E-02 -0.77375E-02 -0.11471E-01 -0.15205E-01 -0.19673E-01 -0.24818E-01
 -0.30373E-01 -0.36523E-01 -0.43667E-01 -0.52203E-01 -0.62948E-01 -0.76564E-01
 -0.91059E-01 -0.10035E+00 -0.97537E-01 -0.80907E-01 -0.56039E-01 -0.31217E-01
 -0.11288E-01  0.36422E-02  0.14943E-01  0.22928E-01  0.27407E-01  0.28759E-01
  0.27354E-01  0.22849E-01  0.14890E-01  0.36525E-02 -0.11222E-01 -0.31146E-01
  0.19510E-01  0.19625E-01  0.17009E-01  0.12155E-01  0.59446E-02 -0.44677E-03
 -0.58374E-02 -0.99143E-02 -0.13559E-01 -0.17804E-01 -0.22757E-01 -0.28011E-01
 -0.33699E-01 -0.40449E-01 -0.48737E-01 -0.59282E-01 -0.73438E-01 -0.91059E-01
 -0.10716E+00 -0.11275E+00 -0.10148E+00 -0.75833E-01 -0.45425E-01 -0.19142E-01
  0.20932E-03  0.14230E-01  0.24500E-01  0.31174E-01  0.34315E-01  0.34359E-01
  0.31255E-01  0.24537E-01  0.14213E-01  0.17935E-03 -0.19178E-01 -0.45477E-01
  0.20439E-01  0.19259E-01  0.15328E-01  0.93357E-02  0.25180E-02 -0.36115E-02
 -0.81961E-02 -0.11805E-01 -0.15711E-01 -0.20395E-01 -0.25369E-01 -0.30445E-01
 -0.36321E-01 -0.43728E-01 -0.53098E-01 -0.65477E-01 -0.81985E-01 -0.10035E+00
 -0.11275E+00 -0.10999E+00 -0.89542E-01 -0.58516E-01 -0.27792E-01 -0.38536E-02
  0.13223E-01  0.25669E-01  0.34445E-01  0.39525E-01  0.41186E-01  0.39660E-01
  0.34574E-01  0.25689E-01  0.13168E-01 -0.39169E-02 -0.27854E-01 -0.58567E-01
  0.18471E-01  0.15958E-01  0.11170E-01  0.49395E-02 -0.13311E-02 -0.63414E-02
 -0.10015E-01 -0.13516E-01 -0.17778E-01 -0.22504E-01 -0.27084E-01 -0.31904E-01
 -0.37974E-01 -0.45785E-01 -0.55596E-01 -0.68281E-01 -0.83720E-01 -0.97537E-01
 -0.10148E+00 -0.89542E-01 -0.63955E-01 -0.33783E-01 -0.75255E-02  0.12061E-01
  0.26427E-01  0.37031E-01  0.43988E-01  0.47318E-01  0.47382E-01  0.44096E-01
  0.37052E-01  0.26356E-01  0.11993E-01 -0.75448E-02 -0.33785E-01 -0.63951E-01
  0.14155E-01  0.10921E-01  0.61105E-02  0.54103E-03 -0.45050E-02 -0.82940E-02
 -0.11442E-01 -0.15103E-01 -0.19463E-01 -0.23738E-01 -0.27683E-01 -0.32237E-01
 -0.38320E-01 -0.45899E-01 -0.54776E-01 -0.65071E-01 -0.75370E-01 -0.80907E-01
 -0.75833E-01 -0.58516E-01 -0.33783E-01 -0.90557E-02  0.11204E-01  0.26766E-01
  0.38750E-01  0.47354E-01  0.52337E-01  0.53940E-01  0.52389E-01  0.47359E-01
  0.38662E-01  0.26656E-01  0.11155E-01 -0.90511E-02 -0.33774E-01 -0.58510E-01
  0.92677E-02  0.60409E-02  0.17388E-02 -0.28508E-02 -0.66911E-02 -0.96499E-02
 -0.12666E-01 -0.16427E-01 -0.20421E-01 -0.23863E-01 -0.27117E-01 -0.31375E-01
 -0.37068E-01 -0.43449E-01 -0.49708E-01 -0.55281E-01 -0.58486E-01 -0.56039E-01
 -0.45425E-01 -0.27792E-01 -0.75255E-02  0.11204E-01  0.26839E-01  0.39568E-01
  0.49404E-01  0.55905E-01  0.59017E-01  0.59053E-01  0.55956E-01  0.49378E-01
  0.39458E-01  0.26706E-01  0.11093E-01 -0.76122E-02 -0.27841E-01 -0.45404E-01
  0.52638E-02  0.22966E-02 -0.14808E-02 -0.51870E-02 -0.81091E-02 -0.10631E-01
 -0.13645E-01 -0.17191E-01 -0.20387E-01 -0.22861E-01 -0.25506E-01 -0.29328E-01
 -0.34012E-01 -0.38197E-01 -0.40787E-01 -0.41191E-01 -0.38454E-01 -0.31217E-01
 -0.19142E-01 -0.38536E-02  0.12061E-01  0.26766E-01  0.39568E-01  0.50084E-01
  0.57761E-01  0.62285E-01  0.63790E-01  0.62389E-01  0.57857E-01  0.50072E-01
  0.39437E-01  0.26558E-01  0.11829E-01 -0.40408E-02 -0.19198E-01 -0.31101E-01
  0.23491E-02 -0.48729E-03 -0.38055E-02 -0.66886E-02 -0.89234E-02 -0.11245E-01
 -0.14168E-01 -0.17135E-01 -0.19320E-01 -0.20935E-01 -0.23055E-01 -0.26105E-01
 -0.29100E-01 -0.30549E-01 -0.29643E-01 -0.26248E-01 -0.20207E-01 -0.11288E-01
  0.20932E-03  0.13223E-01  0.26427E-01  0.38750E-01  0.49404E-01  0.57761E-01
  0.63421E-01  0.66277E-01  0.66344E-01  0.63551E-01  0.57826E-01  0.49345E-01
  0.38588E-01  0.26200E-01  0.12979E-01  0.43021E-04 -0.11284E-01 -0.20038E-01
  0.73409E-04 -0.26413E-02 -0.53398E-02 -0.74021E-02 -0.91962E-02 -0.11453E-01
 -0.14077E-01 -0.16192E-01 -0.17395E-01 -0.18365E-01 -0.19908E-01 -0.21750E-01
 -0.22653E-01 -0.21540E-01 -0.18158E-01 -0.12735E-01 -0.54413E-02  0.36422E-02
  0.14230E-01  0.25669E-01  0.37031E-01  0.47354E-01  0.55905E-01  0.62285E-01
  0.66277E-01  0.67674E-01  0.66322E-01  0.62288E-01  0.55828E-01  0.47252E-01