       #
       # Generated by the Wannier90 code http://www.wannier.org
       # On 26Jul2025 at 02:31:28 
       #
CRYSTAL
PRIMVEC
   0.0000000   2.5000000   2.5000000
   2.5000000   0.0000000   2.5000000
   2.5000000   2.5000000   0.0000000
CONVVEC
   0.0000000   2.5000000   2.5000000
   2.5000000   0.0000000   2.5000000
   2.5000000   2.5000000   0.0000000
PRIMCOORD
     2  1
H       0.0000000   0.0000000   0.0000000
H       1.2500000   1.2500000   1.2500000


BEGIN_BLOCK_DATAGRID_3D
3D_field
BEGIN_DATAGRID_3D_UNKNOWN
    48    48    48
   -5.208333   -5.208333   -5.208333
   0.0000000   4.8958333   4.8958333
   4.8958333   0.0000000   4.8958333
   4.8958333   4.8958333   0.0000000
  0.11732E-02  0.11904E-02  0.98789E-03  0.69706E-03  0.45078E-03  0.28541E-03
  0.13873E-03 -0.77819E-04 -0.36032E-03 -0.56869E-03 -0.57276E-03 -0.44650E-03
 -0.41956E-03 -0.59060E-03 -0.77739E-03 -0.73057E-03 -0.44051E-03 -0.14325E-03
 -0.49451E-04 -0.15561E-03 -0.32423E-03 -0.47380E-03 -0.66246E-03 -0.10277E-02
 -0.16606E-02 -0.25014E-02 -0.33354E-02 -0.39186E-02 -0.41370E-02 -0.40684E-02
 -0.39161E-02 -0.38910E-02 -0.41014E-02 -0.44951E-02 -0.49107E-02 -0.52188E-02
 -0.53923E-02 -0.54090E-02 -0.51530E-02 -0.45053E-02 -0.34888E-02 -0.21973E-02
 -0.59583E-03  0.14569E-02  0.39865E-02  0.69205E-02  0.10390E-01  0.14688E-01
  0.11904E-02  0.99514E-03  0.71704E-03  0.54170E-03  0.43400E-03  0.25153E-03
 -0.53840E-04 -0.38742E-03 -0.60682E-03 -0.64783E-03 -0.59629E-03 -0.62549E-03
 -0.80466E-03 -0.97898E-03 -0.91820E-03 -0.59975E-03 -0.26770E-03 -0.17146E-03
 -0.30536E-03 -0.45890E-03 -0.48831E-03 -0.48818E-03 -0.71134E-03 -0.13474E-02
 -0.23460E-02 -0.34075E-02 -0.41606E-02 -0.44124E-02 -0.42726E-02 -0.40528E-02
 -0.40496E-02 -0.43850E-02 -0.49765E-02 -0.56164E-02 -0.61111E-02 -0.63833E-02
 -0.64364E-02 -0.62371E-02 -0.56996E-02 -0.48004E-02 -0.36106E-02 -0.21563E-02
 -0.34073E-03  0.19153E-02  0.45854E-02  0.77579E-02  0.11783E-01  0.16786E-01
  0.98789E-03  0.71704E-03  0.56779E-03  0.51703E-03  0.34545E-03 -0.22188E-04
 -0.41853E-03 -0.64989E-03 -0.69966E-03 -0.70701E-03 -0.80875E-03 -0.10079E-02
 -0.11580E-02 -0.10888E-02 -0.79478E-03 -0.48220E-03 -0.37620E-03 -0.48152E-03
 -0.58842E-03 -0.52792E-03 -0.38326E-03 -0.43774E-03 -0.93449E-03 -0.18688E-02
 -0.29580E-02 -0.38064E-02 -0.41692E-02 -0.41243E-02 -0.39991E-02 -0.41162E-02
 -0.45875E-02 -0.53020E-02 -0.60489E-02 -0.66482E-02 -0.70206E-02 -0.71742E-02
 -0.71208E-02 -0.68153E-02 -0.62007E-02 -0.52803E-02 -0.40784E-02 -0.25507E-02
 -0.62239E-03  0.17061E-02  0.44519E-02  0.78622E-02  0.12240E-01  0.17255E-01
  0.69706E-03  0.54170E-03  0.51703E-03  0.37846E-03 -0.11116E-04 -0.46496E-03
 -0.71928E-03 -0.75748E-03 -0.78532E-03 -0.95405E-03 -0.12026E-02 -0.13499E-02
 -0.12781E-02 -0.10333E-02 -0.78675E-03 -0.68565E-03 -0.71174E-03 -0.70077E-03
 -0.53309E-03 -0.29707E-03 -0.24232E-03 -0.57504E-03 -0.12947E-02 -0.21865E-02
 -0.29479E-02 -0.33755E-02 -0.35095E-02 -0.36076E-02 -0.39389E-02 -0.45752E-02
 -0.53772E-02 -0.61514E-02 -0.67883E-02 -0.72752E-02 -0.76360E-02 -0.78727E-02
 -0.79343E-02 -0.77319E-02 -0.71952E-02 -0.62996E-02 -0.50286E-02 -0.33543E-02
 -0.12891E-02  0.11226E-02  0.39593E-02  0.74615E-02  0.11647E-01  0.15777E-01
  0.45078E-03  0.43400E-03  0.34545E-03 -0.11116E-04 -0.48958E-03 -0.78090E-03
 -0.82100E-03 -0.84767E-03 -0.10616E-02 -0.13779E-02 -0.15592E-02 -0.14975E-02
 -0.12976E-02 -0.11299E-02 -0.10579E-02 -0.99853E-03 -0.82252E-03 -0.50447E-03
 -0.18722E-03 -0.85003E-04 -0.31067E-03 -0.79822E-03 -0.13756E-02 -0.18851E-02
 -0.22576E-02 -0.25413E-02 -0.28853E-02 -0.34396E-02 -0.42192E-02 -0.50818E-02
 -0.58671E-02 -0.65411E-02 -0.71818E-02 -0.78511E-02 -0.85116E-02 -0.90453E-02
 -0.93080E-02 -0.91742E-02 -0.85707E-02 -0.74848E-02 -0.59469E-02 -0.40208E-02
 -0.17972E-02  0.67543E-03  0.34731E-02  0.66809E-02  0.10039E-01  0.12740E-01
  0.28541E-03  0.25153E-03 -0.22187E-04 -0.46496E-03 -0.78090E-03 -0.85075E-03
 -0.88859E-03 -0.11324E-02 -0.15142E-02 -0.17550E-02 -0.17190E-02 -0.15461E-02
 -0.14372E-02 -0.14088E-02 -0.13004E-02 -0.97943E-03 -0.50335E-03 -0.94276E-04
  0.40217E-04 -0.12374E-03 -0.42609E-03 -0.69099E-03 -0.88366E-03 -0.11019E-02
 -0.14559E-02 -0.19934E-02 -0.27051E-02 -0.35342E-02 -0.43794E-02 -0.51595E-02
 -0.59065E-02 -0.67526E-02 -0.77858E-02 -0.89287E-02 -0.99699E-02 -0.10684E-01
 -0.10908E-01 -0.10553E-01 -0.96132E-02 -0.81589E-02 -0.63160E-02 -0.42207E-02
 -0.19790E-02  0.36906E-03  0.28354E-02  0.53479E-02  0.75702E-02  0.89292E-02
  0.13873E-03 -0.53840E-04 -0.41853E-03 -0.71928E-03 -0.82100E-03 -0.88859E-03
 -0.11582E-02 -0.15899E-02 -0.18942E-02 -0.18966E-02 -0.17383E-02 -0.16586E-02
 -0.16733E-02 -0.15659E-02 -0.11693E-02 -0.58153E-03 -0.90636E-04  0.85547E-04
 -0.17860E-04 -0.16765E-03 -0.17005E-03 -0.65945E-04 -0.88574E-04 -0.43198E-03
 -0.10824E-02 -0.18726E-02 -0.26505E-02 -0.33720E-02 -0.40871E-02 -0.49095E-02
 -0.59774E-02 -0.73551E-02 -0.89267E-02 -0.10412E-01 -0.11513E-01 -0.12038E-01
 -0.11919E-01 -0.11168E-01 -0.98737E-02 -0.81885E-02 -0.62836E-02 -0.42887E-02
 -0.22771E-02 -0.29229E-03  0.16081E-02  0.32931E-02  0.45214E-02  0.50117E-02
 -0.77818E-04 -0.38742E-03 -0.64989E-03 -0.75748E-03 -0.84767E-03 -0.11324E-02
 -0.15899E-02 -0.19445E-02 -0.19940E-02 -0.18545E-02 -0.17877E-02 -0.18396E-02
 -0.17729E-02 -0.13744E-02 -0.73894E-03 -0.19256E-03  0.32040E-04  0.42964E-05
 -0.18933E-05  0.20833E-03  0.54852E-03  0.71261E-03  0.44967E-03 -0.20799E-03
 -0.99101E-03 -0.16570E-02 -0.21925E-02 -0.27798E-02 -0.36321E-02 -0.48738E-02
 -0.64979E-02 -0.83437E-02 -0.10116E-01 -0.11496E-01 -0.12283E-01 -0.12434E-01
 -0.11991E-01 -0.11034E-01 -0.96862E-02 -0.81111E-02 -0.64526E-02 -0.47910E-02
 -0.31707E-02 -0.16545E-02 -0.33674E-03  0.67155E-03  0.12506E-02  0.12947E-02
 -0.36032E-03 -0.60682E-03 -0.69966E-03 -0.78532E-03 -0.10616E-02 -0.15142E-02
 -0.18942E-02 -0.19940E-02 -0.18927E-02 -0.18439E-02 -0.19280E-02 -0.19217E-02
 -0.15730E-02 -0.93801E-03 -0.35121E-03 -0.68128E-04 -0.10114E-04  0.11727E-03
  0.49524E-03  0.99853E-03  0.12994E-02  0.11517E-02  0.60298E-03 -0.53404E-04
 -0.55020E-03 -0.89086E-03 -0.13353E-02 -0.21671E-02 -0.34919E-02 -0.52172E-02
 -0.71353E-02 -0.89864E-02 -0.10512E-01 -0.11537E-01 -0.12025E-01 -0.12024E-01
 -0.11590E-01 -0.10770E-01 -0.96640E-02 -0.84099E-02 -0.71181E-02 -0.58361E-02
 -0.46036E-02 -0.35027E-02 -0.26352E-02 -0.20782E-02 -0.18824E-02 -0.20827E-02
 -0.56869E-03 -0.64783E-03 -0.70701E-03 -0.95405E-03 -0.13779E-02 -0.17550E-02
 -0.18966E-02 -0.18545E-02 -0.18439E-02 -0.19558E-02 -0.20041E-02 -0.17273E-02
 -0.11256E-02 -0.50521E-03 -0.14662E-03  0.36984E-05  0.24325E-03  0.74604E-03
  0.13529E-02  0.17280E-02  0.16766E-02  0.13022E-02  0.89129E-03  0.65067E-03
  0.51847E-03  0.20397E-03 -0.57699E-03 -0.18870E-02 -0.35603E-02 -0.53593E-02
 -0.70957E-02 -0.86342E-02 -0.98712E-02 -0.10757E-01 -0.11298E-01 -0.11495E-01
 -0.11314E-01 -0.10754E-01 -0.99175E-02 -0.89603E-02 -0.79843E-02 -0.70184E-02
 -0.60998E-02 -0.53196E-02 -0.47738E-02 -0.45129E-02 -0.45542E-02 -0.48963E-02
 -0.57276E-03 -0.59629E-03 -0.80875E-03 -0.12026E-02 -0.15592E-02 -0.17190E-02
 -0.17383E-02 -0.17877E-02 -0.19280E-02 -0.20041E-02 -0.17872E-02 -0.12419E-02
 -0.61337E-03 -0.18042E-03  0.61155E-04  0.38292E-03  0.96690E-03  0.16468E-02
  0.20716E-02  0.20843E-02  0.18710E-02  0.17434E-02  0.18246E-02  0.19398E-02
  0.17630E-02  0.10643E-02 -0.13536E-03 -0.16122E-02 -0.31343E-02 -0.46079E-02
 -0.60469E-02 -0.74487E-02 -0.87467E-02 -0.98554E-02 -0.10691E-01 -0.11151E-01
 -0.11148E-01 -0.10721E-01 -0.10053E-01 -0.93340E-02 -0.86341E-02 -0.79437E-02
 -0.72951E-02 -0.67834E-02 -0.64838E-02 -0.64129E-02 -0.65663E-02 -0.69309E-02
 -0.44650E-03 -0.62549E-03 -0.10079E-02 -0.13499E-02 -0.14975E-02 -0.15461E-02
 -0.16586E-02 -0.18396E-02 -0.19217E-02 -0.17273E-02 -0.12419E-02 -0.65228E-03
 -0.18726E-03  0.12448E-03  0.49700E-03  0.11144E-02  0.18457E-02  0.23410E-02
  0.24334E-02  0.23487E-02  0.24505E-02  0.28304E-02  0.32069E-02  0.31961E-02
  0.26282E-02  0.16327E-02  0.48228E-03 -0.63528E-03 -0.17397E-02 -0.29850E-02
 -0.44671E-02 -0.61087E-02 -0.77183E-02 -0.91066E-02 -0.10120E-01 -0.10639E-01
 -0.10645E-01 -0.10296E-01 -0.98409E-02 -0.94239E-02 -0.90284E-02 -0.86118E-02
 -0.82272E-02 -0.79665E-02 -0.78529E-02 -0.78598E-02 -0.79911E-02 -0.82650E-02
 -0.41956E-03 -0.80466E-03 -0.11580E-02 -0.12781E-02 -0.12976E-02 -0.14372E-02
 -0.16733E-02 -0.17729E-02 -0.15730E-02 -0.11256E-02 -0.61337E-03 -0.18726E-03
  0.15090E-03  0.55504E-03  0.11711E-02  0.19158E-02  0.24910E-02  0.27110E-02
  0.27648E-02  0.30295E-02  0.36169E-02  0.42089E-02  0.43761E-02  0.39875E-02
  0.32714E-02  0.25425E-02  0.19186E-02  0.12543E-02  0.28330E-03 -0.11570E-02
 -0.29859E-02 -0.49314E-02 -0.67089E-02 -0.81341E-02 -0.91066E-02 -0.95944E-02
 -0.96937E-02 -0.96259E-02 -0.95786E-02 -0.95619E-02 -0.94848E-02 -0.93413E-02
 -0.92306E-02 -0.92034E-02 -0.91999E-02 -0.91728E-02 -0.91779E-02 -0.92806E-02
 -0.59060E-03 -0.97898E-03 -0.10888E-02 -0.10333E-02 -0.11299E-02 -0.14088E-02
 -0.15659E-02 -0.13744E-02 -0.93801E-03 -0.50521E-03 -0.18042E-03  0.12448E-03
  0.55504E-03  0.11793E-02  0.19082E-02  0.25225E-02  0.28721E-02  0.30890E-02
  0.34943E-02  0.42113E-02  0.49500E-02  0.52837E-02  0.51046E-02  0.47072E-02
  0.44362E-02  0.43359E-02  0.41362E-02  0.34925E-02  0.22242E-02  0.41809E-03
 -0.16288E-02 -0.35878E-02 -0.52603E-02 -0.65913E-02 -0.75846E-02 -0.82820E-02
 -0.88044E-02 -0.92984E-02 -0.97925E-02 -0.10181E-01 -0.10400E-01 -0.10539E-01
 -0.10708E-01 -0.10861E-01 -0.10869E-01 -0.10714E-01 -0.10515E-01 -0.10343E-01
 -0.77739E-03 -0.91820E-03 -0.79478E-03 -0.78675E-03 -0.10579E-02 -0.13004E-02
 -0.11693E-02 -0.73894E-03 -0.35121E-03 -0.14662E-03  0.61155E-04  0.49700E-03
  0.11711E-02  0.19082E-02  0.25155E-02  0.29278E-02  0.32802E-02  0.38208E-02
  0.46393E-02  0.54845E-02  0.59741E-02  0.60222E-02  0.59519E-02  0.61219E-02
  0.65161E-02  0.67588E-02  0.64561E-02  0.54589E-02  0.38798E-02  0.19839E-02
  0.58647E-04 -0.17150E-02 -0.33127E-02 -0.47863E-02 -0.61618E-02 -0.74463E-02
 -0.86717E-02 -0.98403E-02 -0.10854E-01 -0.11601E-01 -0.12115E-01 -0.12546E-01
 -0.12936E-01 -0.13144E-01 -0.13040E-01 -0.12671E-01 -0.12172E-01 -0.11566E-01
 -0.73057E-03 -0.59975E-03 -0.48220E-03 -0.68565E-03 -0.99853E-03 -0.97943E-03
 -0.58153E-03 -0.19256E-03 -0.68128E-04  0.36988E-05  0.38292E-03  0.11144E-02
  0.19158E-02  0.25225E-02  0.29278E-02  0.33399E-02  0.39850E-02  0.48988E-02
  0.58417E-02  0.64854E-02  0.67702E-02  0.70190E-02  0.75858E-02  0.84181E-02
  0.90649E-02  0.90992E-02  0.84306E-02  0.72295E-02  0.57055E-02  0.40143E-02
  0.22559E-02  0.44657E-03 -0.14709E-02 -0.35250E-02 -0.56480E-02 -0.77360E-02
 -0.97128E-02 -0.11491E-01 -0.12946E-01 -0.14028E-01 -0.14832E-01 -0.15474E-01
 -0.15913E-01 -0.15994E-01 -0.15657E-01 -0.14993E-01 -0.14080E-01 -0.12885E-01
 -0.44051E-03 -0.26770E-03 -0.37620E-03 -0.71174E-03 -0.82252E-03 -0.50335E-03
 -0.90636E-04  0.32041E-04 -0.10114E-04  0.24325E-03  0.96690E-03  0.18457E-02
  0.24910E-02  0.28721E-02  0.32802E-02  0.39850E-02  0.49852E-02  0.60221E-02
  0.68082E-02  0.73173E-02  0.78592E-02  0.87682E-02  0.99792E-02  0.11007E-01
  0.11396E-01  0.11100E-01  0.10366E-01  0.93695E-02  0.80907E-02  0.64655E-02
  0.44838E-02  0.21405E-02 -0.56536E-03 -0.35329E-02 -0.65500E-02 -0.94195E-02
 -0.12030E-01 -0.14293E-01 -0.16113E-01 -0.17469E-01 -0.18442E-01 -0.19093E-01
 -0.19363E-01 -0.19172E-01 -0.18533E-01 -0.17507E-01 -0.16086E-01 -0.14227E-01
 -0.14325E-03 -0.17146E-03 -0.48152E-03 -0.70077E-03 -0.50447E-03 -0.94276E-04
  0.85547E-04  0.42970E-05  0.11727E-03  0.74604E-03  0.16468E-02  0.23410E-02
  0.27110E-02  0.30890E-02  0.38208E-02  0.48988E-02  0.60221E-02  0.69189E-02
  0.76075E-02  0.83946E-02  0.95838E-02  0.11110E-01  0.12502E-01  0.13289E-01
  0.13425E-01  0.13207E-01  0.12816E-01  0.12089E-01  0.10748E-01  0.86839E-02
  0.59507E-02  0.26257E-02 -0.11627E-02 -0.51415E-02 -0.89780E-02 -0.12463E-01
 -0.15530E-01 -0.18125E-01 -0.20163E-01 -0.21619E-01 -0.22553E-01 -0.23016E-01
 -0.22998E-01 -0.22492E-01 -0.21516E-01 -0.20059E-01 -0.18065E-01 -0.15520E-01
 -0.49452E-04 -0.30536E-03 -0.58842E-03 -0.53309E-03 -0.18722E-03  0.40217E-04
 -0.17860E-04 -0.18926E-05  0.49524E-03  0.13529E-02  0.20716E-02  0.24334E-02
  0.27648E-02  0.34943E-02  0.46393E-02  0.58417E-02  0.68082E-02  0.76075E-02
  0.85771E-02  0.99901E-02  0.11768E-01  0.13481E-01  0.14684E-01  0.15309E-01
  0.15639E-01  0.15871E-01  0.15779E-01  0.14893E-01  0.12930E-01  0.99246E-02
  0.60466E-02  0.14858E-02 -0.34509E-02 -0.83241E-02 -0.12768E-01 -0.16653E-01
 -0.19982E-01 -0.22716E-01 -0.24775E-01 -0.26154E-01 -0.26923E-01 -0.27144E-01
 -0.26830E-01 -0.25984E-01 -0.24588E-01 -0.22590E-01 -0.19943E-01 -0.16665E-01
 -0.15561E-03 -0.45890E-03 -0.52792E-03 -0.29707E-03 -0.85003E-04 -0.12374E-03
 -0.16765E-03  0.20833E-03  0.99853E-03  0.17280E-02  0.20843E-02  0.23487E-02
  0.30295E-02  0.42113E-02  0.54845E-02  0.64854E-02  0.73173E-02  0.83946E-02
  0.99901E-02  0.11979E-01  0.13948E-01  0.15521E-01  0.16634E-01  0.17522E-01
  0.18367E-01  0.18941E-01  0.18676E-01  0.17077E-01  0.14034E-01  0.97340E-02
  0.44651E-02 -0.13942E-02 -0.73283E-02 -0.12834E-01 -0.17653E-01 -0.21776E-01
 -0.25235E-01 -0.27982E-01 -0.29974E-01 -0.31247E-01 -0.31866E-01 -0.31849E-01
 -0.31186E-01 -0.29868E-01 -0.27872E-01 -0.25159E-01 -0.21725E-01 -0.17604E-01
 -0.32423E-03 -0.48831E-03 -0.38326E-03 -0.24232E-03 -0.31067E-03 -0.42609E-03
 -0.17005E-03  0.54852E-03  0.12994E-02  0.16766E-02  0.18710E-02  0.24505E-02
  0.36169E-02  0.49500E-02  0.59741E-02  0.67702E-02  0.78592E-02  0.95838E-02
  0.11768E-01  0.13948E-01  0.15797E-01  0.17315E-01  0.18720E-01  0.20149E-01
  0.21397E-01  0.21890E-01  0.20968E-01  0.18251E-01  0.13769E-01  0.78683E-02
  0.10873E-02 -0.59221E-02 -0.12554E-01 -0.18459E-01 -0.23579E-01 -0.27960E-01
 -0.31580E-01 -0.34385E-01 -0.36383E-01 -0.37612E-01 -0.38059E-01 -0.37675E-01
 -0.36453E-01 -0.34420E-01 -0.31579E-01 -0.27928E-01 -0.23510E-01 -0.18381E-01
 -0.47380E-03 -0.48818E-03 -0.43774E-03 -0.57504E-03 -0.79822E-03 -0.69099E-03
 -0.65945E-04  0.71261E-03  0.11517E-02  0.13022E-02  0.17434E-02  0.28304E-02
  0.42089E-02  0.52837E-02  0.60222E-02  0.70190E-02  0.87682E-02  0.11110E-01
  0.13481E-01  0.15521E-01  0.17315E-01  0.19132E-01  0.21085E-01  0.22978E-01
  0.24305E-01  0.24349E-01  0.22421E-01  0.18182E-01  0.11838E-01  0.40972E-02
 -0.40995E-02 -0.11953E-01 -0.19062E-01 -0.25389E-01 -0.30990E-01 -0.35809E-01
 -0.39728E-01 -0.42708E-01 -0.44774E-01 -0.45884E-01 -0.45936E-01 -0.44893E-01
 -0.42832E-01 -0.39825E-01 -0.35878E-01 -0.31027E-01 -0.25393E-01 -0.19068E-01
 -0.66246E-03 -0.71134E-03 -0.93449E-03 -0.12947E-02 -0.13756E-02 -0.88366E-03
 -0.88574E-04  0.44967E-03  0.60298E-03  0.89129E-03  0.18246E-02  0.32069E-02
  0.43761E-02  0.51046E-02  0.59519E-02  0.75858E-02  0.99792E-02  0.12502E-01
  0.14684E-01  0.16634E-01  0.18720E-01  0.21085E-01  0.23528E-01  0.25630E-01
  0.26752E-01  0.26023E-01  0.22618E-01  0.16299E-01  0.77317E-02 -0.18034E-02
 -0.11101E-01 -0.19576E-01 -0.27246E-01 -0.34270E-01 -0.40585E-01 -0.45952E-01
 -0.50214E-01 -0.53363E-01 -0.55363E-01 -0.56069E-01 -0.55383E-01 -0.53395E-01
 -0.50264E-01 -0.46042E-01 -0.40718E-01 -0.34414E-01 -0.27360E-01 -0.19648E-01
 -0.10277E-02 -0.13474E-02 -0.18688E-02 -0.21865E-02 -0.18851E-02 -0.11019E-02
 -0.43198E-03 -0.20799E-03 -0.53405E-04  0.65067E-03  0.19398E-02  0.31961E-02
  0.39875E-02  0.47072E-02  0.61219E-02  0.84181E-02  0.11007E-01  0.13289E-01
  0.15309E-01  0.17522E-01  0.20149E-01  0.22978E-01  0.25630E-01  0.27637E-01
  0.28184E-01  0.26104E-01  0.20532E-01  0.11692E-01  0.95844E-03 -0.99718E-02
 -0.20066E-01 -0.29221E-01 -0.37733E-01 -0.45649E-01 -0.52664E-01 -0.58463E-01
 -0.62951E-01 -0.66101E-01 -0.67749E-01 -0.67705E-01 -0.65999E-01 -0.62858E-01
 -0.58442E-01 -0.52742E-01 -0.45801E-01 -0.37894E-01 -0.29316E-01 -0.20059E-01
 -0.16606E-02 -0.23460E-02 -0.29580E-02 -0.29479E-02 -0.22576E-02 -0.14559E-02
 -0.10824E-02 -0.99101E-03 -0.55020E-03  0.51847E-03  0.17630E-02  0.26282E-02
  0.32714E-02  0.44362E-02  0.65161E-02  0.90649E-02  0.11396E-01  0.13425E-01
  0.15639E-01  0.18367E-01  0.21397E-01  0.24305E-01  0.26752E-01  0.28184E-01
  0.27450E-01  0.23207E-01  0.14970E-01  0.37341E-02 -0.85912E-02 -0.20415E-01
 -0.31219E-01 -0.41252E-01 -0.50727E-01 -0.59412E-01 -0.66897E-01 -0.72962E-01
 -0.77546E-01 -0.80479E-01 -0.81464E-01 -0.80374E-01 -0.77410E-01 -0.72868E-01
 -0.66867E-01 -0.59430E-01 -0.50768E-01 -0.41278E-01 -0.31177E-01 -0.20300E-01
 -0.25014E-02 -0.34075E-02 -0.38064E-02 -0.33755E-02 -0.25413E-02 -0.19934E-02
 -0.18726E-02 -0.16570E-02 -0.89086E-03  0.20397E-03  0.10643E-02  0.16327E-02
  0.25425E-02  0.43359E-02  0.67588E-02  0.90992E-02  0.11100E-01  0.13207E-01
  0.15871E-01  0.18941E-01  0.21890E-01  0.24349E-01  0.26023E-01  0.26104E-01
  0.23207E-01  0.16267E-01  0.55541E-02 -0.73297E-02 -0.20509E-01 -0.32925E-01
 -0.44498E-01 -0.55467E-01 -0.65767E-01 -0.75023E-01 -0.82908E-01 -0.89265E-01
 -0.93876E-01 -0.96338E-01 -0.96310E-01 -0.93829E-01 -0.89247E-01 -0.82900E-01
 -0.74968E-01 -0.65658E-01 -0.55348E-01 -0.44393E-01 -0.32824E-01 -0.20433E-01
 -0.33354E-02 -0.41606E-02 -0.41692E-02 -0.35095E-02 -0.28853E-02 -0.27051E-02
 -0.26505E-02 -0.21925E-02 -0.13353E-02 -0.57699E-03 -0.13536E-03  0.48228E-03
  0.19186E-02  0.41362E-02  0.64561E-02  0.84306E-02  0.10366E-01  0.12816E-01
  0.15779E-01  0.18676E-01  0.20968E-01  0.22421E-01  0.22618E-01  0.20532E-01
  0.14970E-01  0.55541E-02 -0.68040E-02 -0.20453E-01 -0.34026E-01 -0.46985E-01
 -0.59369E-01 -0.71220E-01 -0.82307E-01 -0.92280E-01 -0.10083E+00 -0.10759E+00
 -0.11204E+00 -0.11360E+00 -0.11205E+00 -0.10766E+00 -0.10092E+00 -0.92306E-01
 -0.82210E-01 -0.71055E-01 -0.59232E-01 -0.46909E-01 -0.34004E-01 -0.20503E-01
 -0.39186E-02 -0.44124E-02 -0.41243E-02 -0.36076E-02 -0.34396E-02 -0.35342E-02
 -0.33720E-02 -0.27798E-02 -0.21671E-02 -0.18870E-02 -0.16122E-02 -0.63528E-03
  0.12543E-02  0.34925E-02  0.54589E-02  0.72295E-02  0.93695E-02  0.12089E-01
  0.14893E-01  0.17077E-01  0.18251E-01  0.18182E-01  0.16299E-01  0.11692E-01
  0.37341E-02 -0.73297E-02 -0.20453E-01 -0.34397E-01 -0.48317E-01 -0.61922E-01
 -0.75205E-01 -0.88098E-01 -0.10034E+00 -0.11148E+00 -0.12094E+00 -0.12795E+00
 -0.13170E+00 -0.13169E+00 -0.12795E+00 -0.12101E+00 -0.11157E+00 -0.10036E+00
 -0.88053E-01 -0.75159E-01 -0.61914E-01 -0.48326E-01 -0.34414E-01 -0.20519E-01
 -0.41370E-02 -0.42726E-02 -0.39991E-02 -0.39389E-02 -0.42192E-02 -0.43794E-02
 -0.40871E-02 -0.36321E-02 -0.34919E-02 -0.35603E-02 -0.31343E-02 -0.17397E-02
  0.28330E-03  0.22242E-02  0.38798E-02  0.57055E-02  0.80907E-02  0.10748E-01
  0.12930E-01  0.14034E-01  0.13769E-01  0.11838E-01  0.77317E-02  0.95844E-03
 -0.85912E-02 -0.20509E-01 -0.34026E-01 -0.48317E-01 -0.62805E-01 -0.77293E-01
 -0.91799E-01 -0.10623E+00 -0.12013E+00 -0.13269E+00 -0.14283E+00 -0.14945E+00
 -0.15172E+00 -0.14936E+00 -0.14274E+00 -0.13266E+00 -0.12016E+00 -0.10629E+00
 -0.91892E-01 -0.77396E-01 -0.62858E-01 -0.48285E-01 -0.33955E-01 -0.20476E-01
 -0.40684E-02 -0.40528E-02 -0.41162E-02 -0.45752E-02 -0.50818E-02 -0.51595E-02
 -0.49095E-02 -0.48738E-02 -0.52172E-02 -0.53593E-02 -0.46079E-02 -0.29850E-02
 -0.11570E-02  0.41809E-03  0.19839E-02  0.40143E-02  0.64655E-02  0.86839E-02
  0.99246E-02  0.97340E-02  0.78683E-02  0.40972E-02 -0.18034E-02 -0.99718E-02
 -0.20415E-01 -0.32925E-01 -0.46985E-01 -0.61922E-01 -0.77293E-01 -0.93064E-01
 -0.10931E+00 -0.12573E+00 -0.14141E+00 -0.15502E+00 -0.16510E+00 -0.17045E+00
 -0.17038E+00 -0.16494E+00 -0.15486E+00 -0.14134E+00 -0.12576E+00 -0.10942E+00
 -0.93204E-01 -0.77376E-01 -0.61885E-01 -0.46856E-01 -0.32796E-01 -0.20342E-01
 -0.39161E-02 -0.40496E-02 -0.45875E-02 -0.53772E-02 -0.58671E-02 -0.59065E-02
 -0.59774E-02 -0.64979E-02 -0.71353E-02 -0.70957E-02 -0.60469E-02 -0.44671E-02
 -0.29859E-02 -0.16288E-02  0.58647E-04  0.22559E-02  0.44838E-02  0.59507E-02
  0.60466E-02  0.44651E-02  0.10873E-02 -0.40995E-02 -0.11101E-01 -0.20066E-01
 -0.31219E-01 -0.44498E-01 -0.59369E-01 -0.75205E-01 -0.91799E-01 -0.10931E+00
 -0.12766E+00 -0.14603E+00 -0.16297E+00 -0.17678E+00 -0.18586E+00 -0.18901E+00
 -0.18579E+00 -0.17668E+00 -0.16288E+00 -0.14597E+00 -0.12766E+00 -0.10935E+00
 -0.91823E-01 -0.75161E-01 -0.59276E-01 -0.44423E-01 -0.31188E-01 -0.20040E-01
 -0.38910E-02 -0.43850E-02 -0.53020E-02 -0.61514E-02 -0.65411E-02 -0.67526E-02
 -0.73551E-02 -0.83437E-02 -0.89864E-02 -0.86342E-02 -0.74487E-02 -0.61087E-02
 -0.49314E-02 -0.35878E-02 -0.17150E-02  0.44657E-03  0.21405E-02  0.26257E-02
  0.14858E-02 -0.13942E-02 -0.59221E-02 -0.11953E-01 -0.19576E-01 -0.29221E-01
 -0.41252E-01 -0.55467E-01 -0.71220E-01 -0.88098E-01 -0.10623E+00 -0.12573E+00
 -0.14603E+00 -0.16573E+00 -0.18301E+00 -0.19602E+00 -0.20306E+00 -0.20309E+00
 -0.19608E+00 -0.18305E+00 -0.16571E+00 -0.14597E+00 -0.12565E+00 -0.10615E+00
 -0.88012E-01 -0.71150E-01 -0.55474E-01 -0.41343E-01 -0.29300E-01 -0.19548E-01
 -0.41014E-02 -0.49765E-02 -0.60489E-02 -0.67883E-02 -0.71818E-02 -0.77858E-02
 -0.89267E-02 -0.10116E-01 -0.10512E-01 -0.98712E-02 -0.87467E-02 -0.77183E-02
 -0.67089E-02 -0.52603E-02 -0.33127E-02 -0.14709E-02 -0.56536E-03 -0.11627E-02
 -0.34509E-02 -0.73283E-02 -0.12554E-01 -0.19062E-01 -0.27246E-01 -0.37733E-01
 -0.50727E-01 -0.65767E-01 -0.82307E-01 -0.10034E+00 -0.12013E+00 -0.14141E+00
 -0.16297E+00 -0.18301E+00 -0.19956E+00 -0.21065E+00 -0.21462E+00 -0.21077E+00
 -0.19971E+00 -0.18310E+00 -0.16296E+00 -0.14133E+00 -0.12004E+00 -0.10025E+00
 -0.82244E-01 -0.65767E-01 -0.50822E-01 -0.37860E-01 -0.27279E-01 -0.18956E-01
 -0.44951E-02 -0.56164E-02 -0.66482E-02 -0.72752E-02 -0.78511E-02 -0.89287E-02
 -0.10412E-01 -0.11496E-01 -0.11537E-01 -0.10757E-01 -0.98554E-02 -0.91066E-02
 -0.81341E-02 -0.65913E-02 -0.47863E-02 -0.35250E-02 -0.35329E-02 -0.51415E-02
 -0.83241E-02 -0.12834E-01 -0.18459E-01 -0.25389E-01 -0.34270E-01 -0.45649E-01
 -0.59412E-01 -0.75023E-01 -0.92280E-01 -0.11148E+00 -0.13269E+00 -0.15502E+00
 -0.17678E+00 -0.19602E+00 -0.21065E+00 -0.21868E+00 -0.21872E+00 -0.21074E+00
 -0.19609E+00 -0.17680E+00 -0.15499E+00 -0.13268E+00 -0.11151E+00 -0.92299E-01
 -0.75011E-01 -0.59396E-01 -0.45652E-01 -0.34256E-01 -0.25313E-01 -0.18355E-01
 -0.49107E-02 -0.61111E-02 -0.70206E-02 -0.76360E-02 -0.85116E-02 -0.99699E-02
 -0.11513E-01 -0.12283E-01 -0.12025E-01 -0.11298E-01 -0.10691E-01 -0.10120E-01
 -0.91066E-02 -0.75846E-02 -0.61618E-02 -0.56480E-02 -0.65500E-02 -0.89780E-02
 -0.12768E-01 -0.17653E-01 -0.23579E-01 -0.30990E-01 -0.40585E-01 -0.52664E-01
 -0.66897E-01 -0.82908E-01 -0.10083E+00 -0.12094E+00 -0.14283E+00 -0.16510E+00
 -0.18586E+00 -0.20306E+00 -0.21462E+00 -0.21872E+00 -0.21461E+00 -0.20304E+00
 -0.18582E+00 -0.16508E+00 -0.14287E+00 -0.12106E+00 -0.10097E+00 -0.82975E-01
 -0.66845E-01 -0.52534E-01 -0.40440E-01 -0.30868E-01 -0.23514E-01 -0.17676E-01
 -0.52188E-02 -0.63833E-02 -0.71742E-02 -0.78727E-02 -0.90453E-02 -0.10684E-01
 -0.12038E-01 -0.12434E-01 -0.12024E-01 -0.11495E-01 -0.11151E-01 -0.10639E-01
 -0.95944E-02 -0.82820E-02 -0.74463E-02 -0.77360E-02 -0.94195E-02 -0.12463E-01
 -0.16653E-01 -0.21776E-01 -0.27960E-01 -0.35809E-01 -0.45952E-01 -0.58463E-01
 -0.72962E-01 -0.89265E-01 -0.10759E+00 -0.12795E+00 -0.14945E+00 -0.17045E+00
 -0.18901E+00 -0.20309E+00 -0.21077E+00 -0.21074E+00 -0.20304E+00 -0.18894E+00
 -0.17040E+00 -0.14945E+00 -0.12803E+00 -0.10774E+00 -0.89395E-01 -0.72990E-01
 -0.58378E-01 -0.45806E-01 -0.35667E-01 -0.27877E-01 -0.21792E-01 -0.16759E-01
 -0.53923E-02 -0.64364E-02 -0.71208E-02 -0.79343E-02 -0.93080E-02 -0.10908E-01
 -0.11919E-01 -0.11991E-01 -0.11590E-01 -0.11314E-01 -0.11148E-01 -0.10645E-01
 -0.96937E-02 -0.88044E-02 -0.86717E-02 -0.97128E-02 -0.12030E-01 -0.15530E-01
 -0.19982E-01 -0.25235E-01 -0.31580E-01 -0.39728E-01 -0.50214E-01 -0.62951E-01
 -0.77546E-01 -0.93876E-01 -0.11204E+00 -0.13170E+00 -0.15172E+00 -0.17038E+00
 -0.18579E+00 -0.19608E+00 -0.19971E+00 -0.19609E+00 -0.18582E+00 -0.17040E+00
 -0.15172E+00 -0.13169E+00 -0.11205E+00 -0.93919E-01 -0.77594E-01 -0.62983E-01
 -0.50226E-01 -0.39716E-01 -0.31538E-01 -0.25189E-01 -0.19981E-01 -0.15578E-01
 -0.54090E-02 -0.62371E-02 -0.68153E-02 -0.77319E-02 -0.91742E-02 -0.10553E-01
 -0.11168E-01 -0.11034E-01 -0.10770E-01 -0.10754E-01 -0.10721E-01 -0.10296E-01
 -0.96259E-02 -0.92984E-02 -0.98403E-02 -0.11491E-01 -0.14293E-01 -0.18125E-01
 -0.22716E-01 -0.27982E-01 -0.34385E-01 -0.42708E-01 -0.53363E-01 -0.66101E-01
 -0.80479E-01 -0.96338E-01 -0.11360E+00 -0.13169E+00 -0.14936E+00 -0.16494E+00
 -0.17668E+00 -0.18305E+00 -0.18310E+00 -0.17680E+00 -0.16508E+00 -0.14945E+00
 -0.13169E+00 -0.11352E+00 -0.96248E-01 -0.80423E-01 -0.66111E-01 -0.53451E-01
 -0.42835E-01 -0.34461E-01 -0.27946E-01 -0.22610E-01 -0.18042E-01 -0.14272E-01
 -0.51530E-02 -0.56996E-02 -0.62007E-02 -0.71952E-02 -0.85707E-02 -0.96132E-02
 -0.98737E-02 -0.96862E-02 -0.96640E-02 -0.99175E-02 -0.10053E-01 -0.98409E-02
 -0.95786E-02 -0.97925E-02 -0.10854E-01 -0.12946E-01 -0.16113E-01 -0.20163E-01
 -0.24775E-01 -0.29974E-01 -0.36383E-01 -0.44774E-01 -0.55363E-01 -0.67749E-01
 -0.81464E-01 -0.96310E-01 -0.11205E+00 -0.12795E+00 -0.14274E+00 -0.15486E+00
 -0.16288E+00 -0.16571E+00 -0.16296E+00 -0.15499E+00 -0.14287E+00 -0.12803E+00
 -0.11205E+00 -0.96248E-01 -0.81371E-01 -0.67661E-01 -0.55333E-01 -0.44830E-01
 -0.36470E-01 -0.29986E-01 -0.24680E-01 -0.20041E-01 -0.16056E-01 -0.12950E-01
 -0.45053E-02 -0.48004E-02 -0.52803E-02 -0.62996E-02 -0.74848E-02 -0.81589E-02
 -0.81885E-02 -0.81111E-02 -0.84099E-02 -0.89603E-02 -0.93340E-02 -0.94239E-02
 -0.95619E-02 -0.10181E-01 -0.11601E-01 -0.14028E-01 -0.17469E-01 -0.21619E-01
 -0.26154E-01 -0.31247E-01 -0.37612E-01 -0.45884E-01 -0.56069E-01 -0.67705E-01
 -0.80374E-01 -0.93829E-01 -0.10766E+00 -0.12101E+00 -0.13266E+00 -0.14134E+00
 -0.14597E+00 -0.14597E+00 -0.14133E+00 -0.13268E+00 -0.12106E+00 -0.10774E+00
 -0.93919E-01 -0.80423E-01 -0.67661E-01 -0.55935E-01 -0.45740E-01 -0.37530E-01
 -0.31211E-01 -0.26112E-01 -0.21580E-01 -0.17485E-01 -0.14088E-01 -0.11616E-01
 -0.34888E-02 -0.36106E-02 -0.40784E-02 -0.50286E-02 -0.59469E-02 -0.63160E-02
 -0.62836E-02 -0.64526E-02 -0.71181E-02 -0.79843E-02 -0.86341E-02 -0.90284E-02
 -0.94848E-02 -0.10400E-01 -0.12115E-01 -0.14832E-01 -0.18442E-01 -0.22553E-01
 -0.26923E-01 -0.31866E-01 -0.38059E-01 -0.45936E-01 -0.55383E-01 -0.65999E-01
 -0.77410E-01 -0.89247E-01 -0.10092E+00 -0.11157E+00 -0.12016E+00 -0.12576E+00
 -0.12766E+00 -0.12565E+00 -0.12004E+00 -0.11151E+00 -0.10097E+00 -0.89395E-01
 -0.77594E-01 -0.66111E-01 -0.55333E-01 -0.45740E-01 -0.37837E-01 -0.31725E-01
 -0.26884E-01 -0.22595E-01 -0.18557E-01 -0.14984E-01 -0.12196E-01 -0.10317E-01
 -0.21973E-02 -0.21563E-02 -0.25507E-02 -0.33543E-02 -0.40208E-02 -0.42207E-02
 -0.42887E-02 -0.47910E-02 -0.58361E-02 -0.70184E-02 -0.79437E-02 -0.86118E-02
 -0.93413E-02 -0.10539E-01 -0.12546E-01 -0.15474E-01 -0.19093E-01 -0.23016E-01
 -0.27144E-01 -0.31849E-01 -0.37675E-01 -0.44893E-01 -0.53395E-01 -0.62858E-01
 -0.72868E-01 -0.82900E-01 -0.92306E-01 -0.10036E+00 -0.10629E+00 -0.10942E+00
 -0.10935E+00 -0.10615E+00 -0.10025E+00 -0.92299E-01 -0.82975E-01 -0.72990E-01
 -0.62983E-01 -0.53451E-01 -0.44830E-01 -0.37530E-01 -0.31725E-01 -0.27112E-01
 -0.23077E-01 -0.19219E-01 -0.15632E-01 -0.12662E-01 -0.10521E-01 -0.91837E-02
 -0.59583E-03 -0.34073E-03 -0.62239E-03 -0.12891E-02 -0.17972E-02 -0.19790E-02
 -0.22771E-02 -0.31707E-02 -0.46036E-02 -0.60998E-02 -0.72951E-02 -0.82272E-02
 -0.92306E-02 -0.10708E-01 -0.12936E-01 -0.15913E-01 -0.19363E-01 -0.22998E-01
 -0.26830E-01 -0.31186E-01 -0.36453E-01 -0.42832E-01 -0.50264E-01 -0.58442E-01
 -0.66867E-01 -0.74968E-01 -0.82210E-01 -0.88053E-01 -0.91892E-01 -0.93204E-01
 -0.91823E-01 -0.88012E-01 -0.82244E-01 -0.75011E-01 -0.66845E-01 -0.58378E-01
 -0.50226E-01 -0.42835E-01 -0.36470E-01 -0.31211E-01 -0.26884E-01 -0.23077E-01
 -0.19440E-01 -0.15975E-01 -0.12978E-01 -0.10709E-01 -0.91808E-02 -0.81733E-02
  0.14569E-02  0.19153E-02  0.17061E-02  0.11226E-02  0.67543E-03  0.36906E-03
 -0.29229E-03 -0.16545E-02 -0.35027E-02 -0.53196E-02 -0.67834E-02 -0.79665E-02
 -0.92034E-02 -0.10861E-01 -0.13144E-01 -0.15994E-01 -0.19172E-01 -0.22492E-01
 -0.25984E-01 -0.29868E-01 -0.34420E-01 -0.39825E-01 -0.46042E-01 -0.52742E-01
 -0.59430E-01 -0.65658E-01 -0.71055E-01 -0.75159E-01 -0.77396E-01 -0.77376E-01
 -0.75161E-01 -0.71150E-01 -0.65767E-01 -0.59396E-01 -0.52534E-01 -0.45806E-01
 -0.39716E-01 -0.34461E-01 -0.29986E-01 -0.26112E-01 -0.22595E-01 -0.19219E-01
 -0.15975E-01 -0.13091E-01 -0.10822E-01 -0.92062E-02 -0.80245E-02 -0.68991E-02
  0.39865E-02  0.45854E-02  0.44519E-02  0.39593E-02  0.34731E-02  0.28354E-02
  0.16081E-02 -0.33674E-03 -0.26352E-02 -0.47738E-02 -0.64838E-02 -0.78529E-02
 -0.91999E-02 -0.10869E-01 -0.13040E-01 -0.15657E-01 -0.18533E-01 -0.21516E-01
 -0.24588E-01 -0.27872E-01 -0.31579E-01 -0.35878E-01 -0.40718E-01 -0.45801E-01
 -0.50768E-01 -0.55348E-01 -0.59232E-01 -0.61914E-01 -0.62858E-01 -0.61885E-01
 -0.59276E-01 -0.55474E-01 -0.50822E-01 -0.45652E-01 -0.40440E-01 -0.35667E-01
 -0.31538E-01 -0.27946E-01 -0.24680E-01 -0.21580E-01 -0.18557E-01 -0.15632E-01
 -0.12978E-01 -0.10822E-01 -0.92168E-02 -0.79432E-02 -0.66188E-02 -0.49056E-02
  0.69205E-02  0.77579E-02  0.78622E-02  0.74615E-02  0.66809E-02  0.53479E-02
  0.32931E-02  0.67155E-03 -0.20782E-02 -0.45129E-02 -0.64129E-02 -0.78598E-02
 -0.91728E-02 -0.10714E-01 -0.12671E-01 -0.14993E-01 -0.17507E-01 -0.20059E-01
 -0.22590E-01 -0.25159E-01 -0.27928E-01 -0.31027E-01 -0.34414E-01 -0.37894E-01
 -0.41278E-01 -0.44393E-01 -0.46909E-01 -0.48326E-01 -0.48285E-01 -0.46856E-01
 -0.44423E-01 -0.41343E-01 -0.37860E-01 -0.34256E-01 -0.30868E-01 -0.27877E-01
 -0.25189E-01 -0.22610E-01 -0.20041E-01 -0.17485E-01 -0.14984E-01 -0.12662E-01
 -0.10709E-01 -0.92062E-02 -0.79432E-02 -0.65114E-02 -0.45796E-02 -0.20898E-02
  0.10390E-01  0.11783E-01  0.12240E-01  0.11647E-01  0.10039E-01  0.75702E-02
  0.45214E-02  0.12506E-02 -0.18824E-02 -0.45542E-02 -0.65663E-02 -0.79911E-02