       #
       # Generated by the Wannier90 code http://www.wannier.org
       # On 26Jul2025 at 02:31:28 
       #
CRYSTAL
PRIMVEC
   0.0000000   2.5000000   2.5000000
   2.5000000   0.0000000   2.5000000
   2.5000000   2.5000000   0.0000000
CONVVEC
   0.0000000   2.5000000   2.5000000
   2.5000000   0.0000000   2.5000000
   2.5000000   2.5000000   0.0000000
PRIMCOORD
     2  1
H       0.0000000   0.0000000   0.0000000
H       1.2500000   1.2500000   1.2500000


BEGIN_BLOCK_DATAGRID_3D
3D_field
BEGIN_DATAGRID_3D_UNKNOWN
    48    48    48
   -5.208333   -5.208333   -5.208333
   0.0000000   4.8958333   4.8958333
   4.8958333   0.0000000   4.8958333
   4.8958333   4.8958333   0.0000000
 -0.41198E-05 -0.91567E-04 -0.35676E-04  0.11359E-03  0.16263E-03  0.37214E-04
 -0.10837E-03 -0.97029E-04  0.37249E-04  0.11555E-03  0.71511E-04  0.22319E-04
  0.70804E-04  0.15231E-03  0.14054E-03  0.21529E-04 -0.12307E-03 -0.25135E-03
 -0.38206E-03 -0.50912E-03 -0.60620E-03 -0.72562E-03 -0.98159E-03 -0.13784E-02
 -0.17314E-02 -0.18329E-02 -0.16599E-02 -0.13587E-02 -0.10620E-02 -0.79136E-03
 -0.51429E-03 -0.21203E-03  0.12276E-03  0.47962E-03  0.78581E-03  0.92095E-03
  0.82725E-03  0.58698E-03  0.35512E-03  0.22093E-03  0.14932E-03  0.35407E-04
 -0.21215E-03 -0.63009E-03 -0.12099E-02 -0.19342E-02 -0.27949E-02 -0.37450E-02
 -0.91568E-04 -0.18196E-05  0.13840E-03  0.16890E-03  0.45137E-04 -0.89251E-04
 -0.70983E-04  0.74748E-04  0.16645E-03  0.11099E-03  0.29280E-04  0.79204E-04
  0.21908E-03  0.25075E-03  0.85455E-04 -0.14183E-03 -0.25795E-03 -0.26140E-03
 -0.28365E-03 -0.41013E-03 -0.62747E-03 -0.90803E-03 -0.12376E-02 -0.15496E-02
 -0.17267E-02 -0.17144E-02 -0.15719E-02 -0.13695E-02 -0.10874E-02 -0.67530E-03
 -0.17321E-03  0.29513E-03  0.64036E-03  0.85917E-03  0.97204E-03  0.97735E-03
  0.89345E-03  0.79111E-03  0.73105E-03  0.68171E-03  0.53603E-03  0.21072E-03
 -0.29177E-03 -0.91664E-03 -0.16274E-02 -0.24280E-02 -0.33119E-02 -0.41816E-02
 -0.35677E-04  0.13840E-03  0.17595E-03  0.62849E-04 -0.41832E-04  0.44141E-05
  0.16226E-03  0.25912E-03  0.19817E-03  0.82023E-04  0.87631E-04  0.22998E-03
  0.31933E-03  0.19230E-03 -0.71079E-04 -0.23881E-03 -0.21580E-03 -0.15227E-03
 -0.24487E-03 -0.51394E-03 -0.83014E-03 -0.10937E-02 -0.13022E-02 -0.14709E-02
 -0.15767E-02 -0.15904E-02 -0.14929E-02 -0.12391E-02 -0.78055E-03 -0.16988E-03
  0.40913E-03  0.78078E-03  0.93253E-03  0.99032E-03  0.10619E-02  0.11557E-02
  0.12357E-02  0.12768E-02  0.12376E-02  0.10373E-02  0.62059E-03  0.33882E-04
 -0.60757E-03 -0.12308E-02 -0.18591E-02 -0.25489E-02 -0.32854E-02 -0.39335E-02
  0.11359E-03  0.16890E-03  0.62849E-04 -0.17133E-04  0.66519E-04  0.24163E-03
  0.33257E-03  0.26797E-03  0.14883E-03  0.12672E-03  0.23311E-03  0.33593E-03
  0.27937E-03  0.68838E-04 -0.12025E-03 -0.14969E-03 -0.97497E-04 -0.16721E-03
 -0.43220E-03 -0.75020E-03 -0.95306E-03 -0.10428E-02 -0.11419E-02 -0.13017E-02
 -0.14353E-02 -0.14173E-02 -0.11796E-02 -0.72437E-03 -0.12690E-03  0.45237E-03
  0.84076E-03  0.99942E-03  0.10650E-02  0.12020E-02  0.14364E-02  0.16642E-02
  0.17815E-02  0.17416E-02  0.15134E-02  0.10737E-02  0.47372E-03 -0.14987E-03
 -0.68428E-03 -0.11439E-02 -0.16324E-02 -0.22102E-02 -0.28151E-02 -0.32809E-02
  0.16263E-03  0.45137E-04 -0.41832E-04  0.66520E-04  0.27163E-03  0.36132E-03
  0.28392E-03  0.18013E-03  0.18433E-03  0.28106E-03  0.35439E-03  0.31758E-03
  0.18485E-03  0.49597E-04 -0.97106E-05 -0.26656E-04 -0.12801E-03 -0.37607E-03
 -0.65672E-03 -0.79533E-03 -0.78105E-03 -0.79112E-03 -0.95860E-03 -0.11861E-02
 -0.12447E-02 -0.10109E-02 -0.54955E-03 -0.12710E-04  0.46585E-03  0.80275E-03
  0.99687E-03  0.11552E-02  0.14121E-02  0.17779E-02  0.21077E-02  0.22484E-02
  0.21702E-02  0.19262E-02  0.15478E-02  0.10514E-02  0.51200E-03  0.36602E-04
 -0.35097E-03 -0.74081E-03 -0.12265E-02 -0.17939E-02 -0.23208E-02 -0.26375E-02
  0.37214E-04 -0.89251E-04  0.44143E-05  0.24163E-03  0.36132E-03  0.27917E-03
  0.17800E-03  0.22990E-03  0.37412E-03  0.43500E-03  0.35834E-03  0.24046E-03
  0.17484E-03  0.15289E-03  0.98624E-04 -0.54300E-04 -0.30082E-03 -0.53513E-03
 -0.61846E-03 -0.53994E-03 -0.47943E-03 -0.62185E-03 -0.90805E-03 -0.10569E-02
 -0.86215E-03 -0.39806E-03  0.96439E-04  0.46226E-03  0.70370E-03  0.91014E-03
  0.11819E-02  0.15876E-02  0.20906E-02  0.25167E-02  0.26787E-02  0.25548E-02
  0.22864E-02  0.19968E-02  0.16816E-02  0.12970E-02  0.86766E-03  0.44501E-03
  0.13662E-04 -0.48396E-03 -0.10449E-02 -0.15774E-02 -0.19555E-02 -0.20547E-02
 -0.10837E-03 -0.70982E-04  0.16226E-03  0.33257E-03  0.28392E-03  0.17800E-03
  0.24615E-03  0.45205E-03  0.55386E-03  0.44719E-03  0.28374E-03  0.23454E-03
  0.27122E-03  0.24052E-03  0.66651E-04 -0.18448E-03 -0.38489E-03 -0.43918E-03
 -0.35740E-03 -0.28416E-03 -0.39187E-03 -0.67113E-03 -0.87368E-03 -0.75130E-03
 -0.33159E-03  0.12294E-03  0.41444E-03  0.58331E-03  0.79388E-03  0.11537E-02
  0.16681E-02  0.22598E-02  0.27649E-02  0.29935E-02  0.28965E-02  0.26381E-02
  0.24237E-02  0.22792E-02  0.20663E-02  0.16866E-02  0.11770E-02  0.61444E-03
  0.29076E-04 -0.55166E-03 -0.10519E-02 -0.13859E-02 -0.14958E-02 -0.13237E-02
 -0.97029E-04  0.74747E-04  0.25912E-03  0.26797E-03  0.18013E-03  0.22990E-03
  0.45205E-03  0.61239E-03  0.53494E-03  0.34350E-03  0.27226E-03  0.34150E-03
  0.35902E-03  0.19959E-03 -0.50634E-04 -0.22954E-03 -0.27255E-03 -0.23379E-03
 -0.22156E-03 -0.33066E-03 -0.55176E-03 -0.71843E-03 -0.63182E-03 -0.28762E-03
  0.94476E-04  0.32439E-03  0.45774E-03  0.69507E-03  0.11339E-02  0.17057E-02
  0.22944E-02  0.27982E-02  0.31012E-02  0.31323E-02  0.29840E-02  0.28569E-02
  0.28244E-02  0.27326E-02  0.23931E-02  0.18022E-02  0.11073E-02  0.43413E-03
 -0.16065E-03 -0.61870E-03 -0.87563E-03 -0.92125E-03 -0.77731E-03 -0.41979E-03
  0.37249E-04  0.16645E-03  0.19817E-03  0.14883E-03  0.18433E-03  0.37412E-03
  0.55386E-03  0.53494E-03  0.37565E-03  0.30318E-03  0.38754E-03  0.44656E-03
  0.31319E-03  0.63385E-04 -0.10596E-03 -0.13357E-03 -0.12917E-03 -0.20635E-03
 -0.37217E-03 -0.54900E-03 -0.62280E-03 -0.50021E-03 -0.20783E-03  0.84952E-04
  0.23912E-03  0.33756E-03  0.60436E-03  0.11243E-02  0.17454E-02  0.22816E-02
  0.26916E-02  0.30051E-02  0.31999E-02  0.32620E-02  0.32768E-02  0.33171E-02
  0.32754E-02  0.29507E-02  0.23073E-02  0.15345E-02  0.83708E-03  0.28135E-03
 -0.12823E-03 -0.35124E-03 -0.36763E-03 -0.23711E-03 -0.11358E-04  0.35161E-03
  0.11555E-03  0.11099E-03  0.82023E-04  0.12672E-03  0.28106E-03  0.43500E-03
  0.44719E-03  0.34350E-03  0.30318E-03  0.40644E-03  0.49777E-03  0.39156E-03
  0.13875E-03 -0.37386E-04 -0.43949E-04 -0.24286E-04 -0.14221E-03 -0.37279E-03
 -0.55362E-03 -0.56002E-03 -0.38412E-03 -0.11740E-03  0.97580E-04  0.17863E-03
  0.23207E-03  0.49354E-03  0.10574E-02  0.17276E-02  0.22324E-02  0.25295E-02
  0.27852E-02  0.30987E-02  0.33987E-02  0.36044E-02  0.37140E-02  0.36798E-02
  0.33574E-02  0.27014E-02  0.19098E-02  0.12490E-02  0.79595E-03  0.46598E-03
  0.22602E-03  0.13251E-03  0.18205E-03  0.28430E-03  0.41386E-03  0.66088E-03
  0.71511E-04  0.29280E-04  0.87631E-04  0.23311E-03  0.35439E-03  0.35834E-03
  0.28374E-03  0.27226E-03  0.38754E-03  0.49777E-03  0.42034E-03  0.17483E-03
 -0.15622E-04 -0.12174E-04  0.55386E-04 -0.27696E-04 -0.26992E-03 -0.46944E-03
 -0.46257E-03 -0.27719E-03 -0.56763E-04  0.77467E-04  0.10285E-03  0.13185E-03
  0.36641E-03  0.90430E-03  0.15731E-02  0.20701E-02  0.23063E-02  0.24996E-02
  0.28707E-02  0.33655E-02  0.37653E-02  0.39493E-02  0.39094E-02  0.36026E-02
  0.29961E-02  0.22458E-02  0.16377E-02  0.12920E-02  0.10662E-02  0.80859E-03
  0.56373E-03  0.43781E-03  0.39909E-03  0.35521E-03  0.34580E-03  0.50430E-03
  0.22319E-04  0.79204E-04  0.22998E-03  0.33593E-03  0.31758E-03  0.24046E-03
  0.23454E-03  0.34150E-03  0.44656E-03  0.39156E-03  0.17483E-03 -0.13292E-04
 -0.13410E-04  0.89290E-04  0.69833E-04 -0.13263E-03 -0.32952E-03 -0.32941E-03
 -0.16532E-03 -0.16742E-04  0.14109E-04 -0.18686E-04  0.18708E-04  0.25404E-03
  0.72915E-03  0.13159E-02  0.17722E-02  0.19931E-02  0.21679E-02  0.25667E-02
  0.31879E-02  0.37465E-02  0.40031E-02  0.39533E-02  0.36759E-02  0.31886E-02
  0.25626E-02  0.20162E-02  0.17137E-02  0.15490E-02  0.12919E-02  0.90920E-03
  0.57269E-03  0.37367E-03  0.22057E-03  0.58234E-04  0.96026E-05  0.20408E-03
  0.70804E-04  0.21908E-03  0.31933E-03  0.27937E-03  0.18485E-03  0.17484E-03
  0.27122E-03  0.35902E-03  0.31319E-03  0.13875E-03 -0.15622E-04 -0.13410E-04
  0.94849E-04  0.11350E-03 -0.46603E-04 -0.23198E-03 -0.23900E-03 -0.85550E-04
  0.19386E-04 -0.40077E-04 -0.14521E-03 -0.98478E-04  0.17711E-03  0.61487E-03
  0.10801E-02  0.14351E-02  0.16370E-02  0.18323E-02  0.22540E-02  0.29339E-02
  0.35946E-02  0.39203E-02  0.38688E-02  0.36141E-02  0.32737E-02  0.28547E-02
  0.24238E-02  0.21135E-02  0.19122E-02  0.16289E-02  0.11619E-02  0.66228E-03
  0.31818E-03  0.10471E-03 -0.10502E-03 -0.27438E-03 -0.23187E-03  0.65080E-04
  0.15231E-03  0.25075E-03  0.19230E-03  0.68837E-04  0.49597E-04  0.15289E-03
  0.24052E-03  0.19958E-03  0.63385E-04 -0.37387E-04 -0.12174E-04  0.89290E-04
  0.11350E-03 -0.22874E-04 -0.20330E-03 -0.22901E-03 -0.80791E-04  0.33402E-04
 -0.48583E-04 -0.20869E-03 -0.18178E-03  0.12912E-03  0.57045E-03  0.93936E-03
  0.11672E-02  0.13250E-02  0.15579E-02  0.20111E-02  0.26936E-02  0.33811E-02
  0.37634E-02  0.37443E-02  0.35140E-02  0.32889E-02  0.30901E-02  0.28420E-02
  0.25511E-02  0.22550E-02  0.18864E-02  0.13626E-02  0.77757E-03  0.33693E-03
  0.93256E-04 -0.93590E-04 -0.29712E-03 -0.38917E-03 -0.24886E-03  0.30178E-04
  0.14054E-03  0.85455E-04 -0.71080E-04 -0.12025E-03 -0.97107E-05  0.98624E-04
  0.66651E-04 -0.50634E-04 -0.10596E-03 -0.43950E-04  0.55386E-04  0.69833E-04
 -0.46604E-04 -0.20330E-03 -0.24147E-03 -0.11577E-03  0.15671E-04 -0.29826E-04
 -0.19453E-03 -0.20649E-03  0.90440E-04  0.53681E-03  0.85788E-03  0.98307E-03
  0.10837E-02  0.13578E-02  0.18677E-02  0.25344E-02  0.31754E-02  0.35733E-02
  0.36298E-02  0.34739E-02  0.33332E-02  0.32854E-02  0.32134E-02  0.29966E-02
  0.26336E-02  0.21604E-02  0.15853E-02  0.97629E-03  0.49461E-03  0.23022E-03
  0.79715E-04 -0.10192E-03 -0.28984E-03 -0.35595E-03 -0.30574E-03 -0.30013E-03
  0.21529E-04 -0.14183E-03 -0.23881E-03 -0.14969E-03 -0.26656E-04 -0.54300E-04
 -0.18448E-03 -0.22954E-03 -0.13357E-03 -0.24286E-04 -0.27696E-04 -0.13263E-03
 -0.23198E-03 -0.22901E-03 -0.11577E-03  0.78276E-06 -0.15119E-04 -0.14932E-03
 -0.18874E-03  0.49910E-04  0.46576E-03  0.76820E-03  0.83933E-03  0.88568E-03
  0.11833E-02  0.17710E-02  0.24559E-02  0.30287E-02  0.33884E-02  0.35309E-02
  0.35308E-02  0.35149E-02  0.35530E-02  0.35674E-02  0.34109E-02  0.30275E-02
  0.24836E-02  0.18760E-02  0.12885E-02  0.81926E-03  0.53647E-03  0.38308E-03
  0.21525E-03 -0.31330E-04 -0.29422E-03 -0.53354E-03 -0.82878E-03 -0.12592E-02
 -0.12307E-03 -0.25796E-03 -0.21580E-03 -0.97497E-04 -0.12801E-03 -0.30082E-03
 -0.38489E-03 -0.27255E-03 -0.12917E-03 -0.14221E-03 -0.26992E-03 -0.32952E-03
 -0.23900E-03 -0.80791E-04  0.15671E-04 -0.15119E-04 -0.12721E-03 -0.16650E-03
  0.14135E-04  0.36954E-03  0.65851E-03  0.72530E-03  0.73696E-03  0.10177E-02
  0.16572E-02  0.24036E-02  0.29604E-02  0.32717E-02  0.34728E-02  0.36733E-02
  0.38743E-02  0.40243E-02  0.40538E-02  0.38797E-02  0.34638E-02  0.28756E-02
  0.22550E-02  0.17161E-02  0.13065E-02  0.10246E-02  0.81951E-03  0.59664E-03
  0.27956E-03 -0.13765E-03 -0.63569E-03 -0.12364E-02 -0.19610E-02 -0.27466E-02
 -0.25135E-03 -0.26140E-03 -0.15227E-03 -0.16721E-03 -0.37607E-03 -0.53513E-03
 -0.43918E-03 -0.23379E-03 -0.20635E-03 -0.37279E-03 -0.46944E-03 -0.32941E-03
 -0.85550E-04  0.33402E-04 -0.29826E-04 -0.14932E-03 -0.16650E-03 -0.61485E-06
  0.30029E-03  0.56764E-03  0.66247E-03  0.68134E-03  0.92063E-03  0.15415E-02
  0.23389E-02  0.29555E-02  0.32827E-02  0.35304E-02  0.39100E-02  0.43796E-02
  0.47287E-02  0.48006E-02  0.45673E-02  0.40781E-02  0.34350E-02  0.27908E-02
  0.22821E-02  0.19388E-02  0.16831E-02  0.14125E-02  0.10640E-02  0.61582E-03
  0.60885E-04 -0.61497E-03 -0.14321E-02 -0.23803E-02 -0.33849E-02 -0.43503E-02
 -0.38206E-03 -0.28365E-03 -0.24487E-03 -0.43220E-03 -0.65672E-03 -0.61846E-03
 -0.35740E-03 -0.22156E-03 -0.37217E-03 -0.55362E-03 -0.46257E-03 -0.16532E-03
  0.19386E-04 -0.48583E-04 -0.19453E-03 -0.18874E-03  0.14135E-04  0.30029E-03
  0.53317E-03  0.64577E-03  0.70907E-03  0.93391E-03  0.14904E-02  0.22778E-02
  0.29794E-02  0.34177E-02  0.37625E-02  0.42900E-02  0.50031E-02  0.56014E-02
  0.57966E-02  0.55450E-02  0.49860E-02  0.42880E-02  0.36048E-02  0.30713E-02
  0.27305E-02  0.24788E-02  0.21498E-02  0.16585E-02  0.10350E-02  0.33217E-03
 -0.45449E-03 -0.13659E-02 -0.24082E-02 -0.35283E-02 -0.46667E-02 -0.58267E-02
 -0.50912E-03 -0.41013E-03 -0.51394E-03 -0.75020E-03 -0.79533E-03 -0.53994E-03
 -0.28416E-03 -0.33066E-03 -0.54900E-03 -0.56002E-03 -0.27719E-03 -0.16742E-04
 -0.40077E-04 -0.20869E-03 -0.20649E-03  0.49910E-04  0.36954E-03  0.56764E-03
  0.64577E-03  0.73594E-03  0.99186E-03  0.15124E-02  0.22509E-02  0.30030E-02
  0.36001E-02  0.41283E-02  0.48346E-02  0.57675E-02  0.66184E-02  0.69956E-02
  0.67875E-02  0.61900E-02  0.54602E-02  0.47573E-02  0.41706E-02  0.37416E-02
  0.34028E-02  0.29867E-02  0.23737E-02  0.15969E-02  0.76511E-03 -0.82062E-04
 -0.99327E-03 -0.20128E-02 -0.31358E-02 -0.43621E-02 -0.57431E-02 -0.73378E-02
 -0.60620E-03 -0.62747E-03 -0.83013E-03 -0.95306E-03 -0.78105E-03 -0.47943E-03
 -0.39187E-03 -0.55176E-03 -0.62281E-03 -0.38412E-03 -0.56763E-04  0.14109E-04
 -0.14521E-03 -0.18178E-03  0.90440E-04  0.46576E-03  0.65851E-03  0.66247E-03
  0.70907E-03  0.99186E-03  0.15356E-02  0.22518E-02  0.30154E-02  0.37437E-02
  0.45000E-02  0.54653E-02  0.66830E-02  0.78495E-02  0.84901E-02  0.83843E-02
  0.77401E-02  0.69378E-02  0.62049E-02  0.55736E-02  0.50170E-02  0.44954E-02
  0.39161E-02  0.31842E-02  0.23167E-02  0.14287E-02  0.58809E-03 -0.25568E-03
 -0.11883E-02 -0.22547E-02 -0.35052E-02 -0.50448E-02 -0.69574E-02 -0.91988E-02
 -0.72562E-03 -0.90803E-03 -0.10937E-02 -0.10428E-02 -0.79112E-03 -0.62185E-03
 -0.67113E-03 -0.71843E-03 -0.50021E-03 -0.11740E-03  0.77467E-04 -0.18686E-04
 -0.98478E-04  0.12912E-03  0.53681E-03  0.76820E-03  0.72530E-03  0.68134E-03
  0.93391E-03  0.15124E-02  0.22518E-02  0.30186E-02  0.38131E-02  0.47569E-02
  0.60209E-02  0.76397E-02  0.93030E-02  0.10429E-01  0.10598E-01  0.99205E-02
  0.89015E-02  0.79724E-02  0.72218E-02  0.65302E-02  0.57983E-02  0.49968E-02
  0.41216E-02  0.32098E-02  0.23506E-02  0.15951E-02  0.87498E-03  0.60087E-04
 -0.94124E-03 -0.22046E-02 -0.38581E-02 -0.60162E-02 -0.86426E-02 -0.11575E-01
 -0.98159E-03 -0.12376E-02 -0.13022E-02 -0.11419E-02 -0.95860E-03 -0.90805E-03
 -0.87368E-03 -0.63182E-03 -0.20782E-03  0.97581E-04  0.10285E-03  0.18709E-04
  0.17711E-03  0.57045E-03  0.85788E-03  0.83933E-03  0.73696E-03  0.92063E-03
  0.14904E-02  0.22509E-02  0.30154E-02  0.38131E-02  0.48455E-02  0.63431E-02
  0.83924E-02  0.10725E-01  0.12667E-01  0.13501E-01  0.13025E-01  0.11722E-01
  0.10310E-01  0.91714E-02  0.82356E-02  0.72965E-02  0.62827E-02  0.52605E-02
  0.43266E-02  0.35501E-02  0.29315E-02  0.23640E-02  0.16776E-02  0.74044E-03
 -0.53413E-03 -0.22670E-02 -0.45869E-02 -0.74854E-02 -0.10819E-01 -0.14525E-01
 -0.13784E-02 -0.15496E-02 -0.14709E-02 -0.13017E-02 -0.11861E-02 -0.10569E-02
 -0.75130E-03 -0.28762E-03  0.84953E-04  0.17863E-03  0.13185E-03  0.25404E-03
  0.61487E-03  0.93936E-03  0.98307E-03  0.88568E-03  0.10177E-02  0.15415E-02
  0.22778E-02  0.30030E-02  0.37437E-02  0.47569E-02  0.63431E-02  0.86806E-02
  0.11634E-01  0.14572E-01  0.16516E-01  0.16768E-01  0.15467E-01  0.13469E-01
  0.11609E-01  0.10160E-01  0.89342E-02  0.77429E-02  0.66154E-02  0.56873E-02
  0.50237E-02  0.45623E-02  0.41405E-02  0.35635E-02  0.26870E-02  0.14284E-02
 -0.31348E-03 -0.26726E-02 -0.56827E-02 -0.92306E-02 -0.13289E-01 -0.18081E-01
 -0.17314E-02 -0.17267E-02 -0.15767E-02 -0.14353E-02 -0.12447E-02 -0.86215E-03
 -0.33159E-03  0.94476E-04  0.23912E-03  0.23207E-03  0.36641E-03  0.72915E-03
  0.10801E-02  0.11672E-02  0.10837E-02  0.11833E-02  0.16572E-02  0.23389E-02
  0.29794E-02  0.36001E-02  0.45000E-02  0.60209E-02  0.83924E-02  0.11634E-01
  0.15331E-01  0.18500E-01  0.20001E-01  0.19355E-01  0.17151E-01  0.14542E-01
  0.12340E-01  0.10660E-01  0.92731E-02  0.80880E-02  0.72034E-02  0.66794E-02
  0.63961E-02  0.61178E-02  0.56245E-02  0.47932E-02  0.35798E-02  0.19211E-02
 -0.31594E-03 -0.32228E-02 -0.67382E-02 -0.10823E-01 -0.15754E-01 -0.21897E-01
 -0.18329E-02 -0.17144E-02 -0.15904E-02 -0.14173E-02 -0.10109E-02 -0.39806E-03
  0.12294E-03  0.32439E-03  0.33756E-03  0.49354E-03  0.90430E-03  0.13159E-02
  0.14351E-02  0.13250E-02  0.13578E-02  0.17710E-02  0.24036E-02  0.29555E-02
  0.34177E-02  0.41283E-02  0.54653E-02  0.76397E-02  0.10725E-01  0.14572E-01
  0.18500E-01  0.21297E-01  0.21906E-01  0.20278E-01  0.17430E-01  0.14594E-01
  0.12383E-01  0.10754E-01  0.95287E-02  0.87109E-02  0.83388E-02  0.82618E-02
  0.81687E-02  0.77876E-02  0.70113E-02  0.58591E-02  0.43385E-02  0.23477E-02
 -0.25403E-03 -0.34849E-02 -0.72869E-02 -0.11846E-01 -0.17656E-01 -0.24803E-01
 -0.16599E-02 -0.15719E-02 -0.14929E-02 -0.11796E-02 -0.54956E-03  0.96439E-04
  0.41444E-03  0.45774E-03  0.60436E-03  0.10574E-02  0.15731E-02  0.17722E-02
  0.16370E-02  0.15579E-02  0.18677E-02  0.24559E-02  0.29604E-02  0.32827E-02
  0.37625E-02  0.48346E-02  0.66830E-02  0.93030E-02  0.12667E-01  0.16516E-01
  0.20001E-01  0.21906E-01  0.21522E-01  0.19280E-01  0.16389E-01  0.13872E-01
  0.12049E-01  0.10808E-01  0.10071E-01  0.98415E-02  0.99761E-02  0.10128E-01
  0.99555E-02  0.93215E-02  0.82797E-02  0.69155E-02  0.52010E-02  0.29978E-02
  0.21217E-03 -0.31182E-02 -0.70274E-02 -0.11883E-01 -0.18086E-01 -0.25141E-01
 -0.13587E-02 -0.13695E-02 -0.12391E-02 -0.72437E-03 -0.12710E-04  0.46226E-03
  0.58331E-03  0.69507E-03  0.11243E-02  0.17276E-02  0.20701E-02  0.19931E-02
  0.18323E-02  0.20111E-02  0.25344E-02  0.30287E-02  0.32717E-02  0.35304E-02
  0.42900E-02  0.57675E-02  0.78495E-02  0.10429E-01  0.13501E-01  0.16768E-01
  0.19355E-01  0.20278E-01  0.19280E-01  0.17085E-01  0.14764E-01  0.12968E-01
  0.11801E-01  0.11191E-01  0.11109E-01  0.11439E-01  0.11860E-01  0.11995E-01
  0.11645E-01  0.10834E-01  0.96783E-02  0.82253E-02  0.64014E-02  0.40912E-02
  0.12755E-02 -0.19897E-02 -0.58123E-02 -0.10539E-01 -0.16239E-01 -0.21934E-01
 -0.10620E-02 -0.10874E-02 -0.78056E-03 -0.12690E-03  0.46585E-03  0.70370E-03
  0.79388E-03  0.11339E-02  0.17454E-02  0.22324E-02  0.23063E-02  0.21679E-02
  0.22540E-02  0.26936E-02  0.31754E-02  0.33884E-02  0.34728E-02  0.39100E-02
  0.50031E-02  0.66184E-02  0.84901E-02  0.10598E-01  0.13025E-01  0.15467E-01
  0.17151E-01  0.17430E-01  0.16389E-01  0.14764E-01  0.13305E-01  0.12359E-01
  0.11960E-01  0.12078E-01  0.12614E-01  0.13301E-01  0.13784E-01  0.13825E-01
  0.13391E-01  0.12559E-01  0.11399E-01  0.99143E-02  0.80385E-02  0.57114E-02
  0.29661E-02 -0.12514E-03 -0.36312E-02 -0.77057E-02 -0.12103E-01 -0.15771E-01
 -0.79136E-03 -0.67530E-03 -0.16988E-03  0.45237E-03  0.80275E-03  0.91014E-03
  0.11537E-02  0.17057E-02  0.22816E-02  0.25295E-02  0.24996E-02  0.25667E-02
  0.29339E-02  0.33811E-02  0.35733E-02  0.35309E-02  0.36733E-02  0.43796E-02
  0.56014E-02  0.69956E-02  0.83843E-02  0.99205E-02  0.11722E-01  0.13469E-01
  0.14542E-01  0.14594E-01  0.13872E-01  0.12968E-01  0.12359E-01  0.12239E-01
  0.12625E-01  0.13420E-01  0.14389E-01  0.15220E-01  0.15683E-01  0.15713E-01
  0.15330E-01  0.14562E-01  0.13431E-01  0.11951E-01  0.10087E-01  0.78059E-02
  0.51735E-02  0.23264E-02 -0.66959E-03 -0.37650E-02 -0.66098E-02 -0.84315E-02
 -0.51429E-03 -0.17321E-03  0.40913E-03  0.84076E-03  0.99687E-03  0.11819E-02
  0.16681E-02  0.22944E-02  0.26916E-02  0.27852E-02  0.28707E-02  0.31879E-02
  0.35946E-02  0.37634E-02  0.36298E-02  0.35308E-02  0.38743E-02  0.47287E-02
  0.57966E-02  0.67875E-02  0.77401E-02  0.89015E-02  0.10310E-01  0.11609E-01
  0.12340E-01  0.12383E-01  0.12049E-01  0.11801E-01  0.11960E-01  0.12625E-01
  0.13713E-01  0.14996E-01  0.16180E-01  0.17054E-01  0.17561E-01  0.17697E-01
  0.17428E-01  0.16726E-01  0.15632E-01  0.14194E-01  0.12378E-01  0.10159E-01
  0.76619E-02  0.51210E-02  0.27166E-02  0.58566E-03 -0.99424E-03 -0.16063E-02
 -0.21203E-03  0.29513E-03  0.78078E-03  0.99942E-03  0.11552E-02  0.15876E-02
  0.22598E-02  0.27982E-02  0.30051E-02  0.30987E-02  0.33655E-02  0.37465E-02
  0.39203E-02  0.37443E-02  0.34739E-02  0.35149E-02  0.40243E-02  0.48006E-02
  0.55450E-02  0.61900E-02  0.69378E-02  0.79724E-02  0.91714E-02  0.10160E-01
  0.10660E-01  0.10754E-01  0.10808E-01  0.11191E-01  0.12078E-01  0.13420E-01
  0.14996E-01  0.16522E-01  0.17790E-01  0.18750E-01  0.19411E-01  0.19710E-01
  0.19534E-01  0.18863E-01  0.17790E-01  0.16374E-01  0.14585E-01  0.12447E-01
  0.10164E-01  0.80061E-02  0.61591E-02  0.47503E-02  0.39679E-02  0.39982E-02
  0.12276E-03  0.64036E-03  0.93253E-03  0.10650E-02  0.14121E-02  0.20906E-02
  0.27649E-02  0.31012E-02  0.31999E-02  0.33987E-02  0.37653E-02  0.40031E-02
  0.38688E-02  0.35140E-02  0.33332E-02  0.35530E-02  0.40538E-02  0.45673E-02
  0.49860E-02  0.54602E-02  0.62049E-02  0.72218E-02  0.82356E-02  0.89342E-02
  0.92731E-02  0.95287E-02  0.10071E-01  0.11109E-01  0.12614E-01  0.14389E-01
  0.16180E-01  0.17790E-01  0.19161E-01  0.20310E-01  0.21183E-01  0.21611E-01
  0.21456E-01  0.20749E-01  0.19623E-01  0.18159E-01  0.16388E-01  0.14428E-01
  0.12497E-01  0.10783E-01  0.93946E-02  0.84559E-02  0.81379E-02  0.85172E-02
  0.47962E-03  0.85917E-03  0.99032E-03  0.12020E-02  0.17779E-02  0.25167E-02
  0.29935E-02  0.31323E-02  0.32620E-02  0.36044E-02  0.39493E-02  0.39533E-02
  0.36141E-02  0.32889E-02  0.32854E-02  0.35674E-02  0.38797E-02  0.40781E-02
  0.42880E-02  0.47573E-02  0.55736E-02  0.65302E-02  0.72965E-02  0.77429E-02
  0.80880E-02  0.87109E-02  0.98415E-02  0.11439E-01  0.13301E-01  0.15220E-01
  0.17054E-01  0.18750E-01  0.20310E-01  0.21693E-01  0.22729E-01  0.23190E-01
  0.22967E-01  0.22144E-01  0.20892E-01  0.19359E-01  0.17689E-01  0.16048E-01
  0.14563E-01  0.13278E-01  0.12251E-01  0.11653E-01  0.11655E-01  0.12248E-01
  0.78581E-03  0.97204E-03  0.10619E-02  0.14364E-02  0.21077E-02  0.26787E-02
  0.28965E-02  0.29840E-02  0.32768E-02  0.37140E-02  0.39094E-02  0.36759E-02
  0.32737E-02  0.30901E-02  0.32134E-02  0.34109E-02  0.34638E-02  0.34350E-02
  0.36048E-02  0.41706E-02  0.50170E-02  0.57983E-02  0.62827E-02  0.66154E-02
  0.72034E-02  0.83388E-02  0.99761E-02  0.11860E-01  0.13784E-01  0.15683E-01
  0.17561E-01  0.19411E-01  0.21183E-01  0.22729E-01  0.23809E-01  0.24203E-01
  0.23859E-01  0.22906E-01  0.21564E-01  0.20061E-01  0.18609E-01  0.17343E-01
  0.16264E-01  0.15330E-01  0.14622E-01  0.14335E-01  0.14581E-01  0.15263E-01
  0.92094E-03  0.97735E-03  0.11557E-02  0.16642E-02  0.22484E-02  0.25548E-02
  0.26381E-02  0.28569E-02  0.33171E-02  0.36798E-02  0.36026E-02  0.31886E-02
  0.28547E-02  0.28420E-02  0.29966E-02  0.30275E-02  0.28756E-02  0.27908E-02
  0.30713E-02  0.37416E-02  0.44954E-02  0.49968E-02  0.52605E-02  0.56873E-02
  0.66794E-02  0.82618E-02  0.10128E-01  0.11995E-01  0.13825E-01  0.15713E-01
  0.17697E-01  0.19710E-01  0.21611E-01  0.23190E-01  0.24203E-01  0.24487E-01
  0.24057E-01  0.23082E-01  0.21802E-01  0.20466E-01  0.19278E-01  0.18315E-01
  0.17529E-01  0.16889E-01  0.16494E-01  0.16486E-01  0.16868E-01  0.17512E-01
  0.82725E-03  0.89345E-03  0.12357E-02  0.17815E-02  0.21702E-02  0.22864E-02
  0.24237E-02  0.28244E-02  0.32754E-02  0.33574E-02  0.29961E-02  0.25626E-02
  0.24238E-02  0.25511E-02  0.26336E-02  0.24836E-02  0.22550E-02  0.22821E-02
  0.27305E-02  0.34028E-02  0.39161E-02  0.41216E-02  0.43266E-02  0.50237E-02
  0.63961E-02  0.81687E-02  0.99555E-02  0.11645E-01  0.13391E-01  0.15330E-01
  0.17428E-01  0.19534E-01  0.21456E-01  0.22967E-01  0.23859E-01  0.24057E-01
  0.23653E-01  0.22826E-01  0.21767E-01  0.20677E-01  0.19728E-01  0.18988E-01
  0.18433E-01  0.18063E-01  0.17944E-01  0.18112E-01  0.18504E-01  0.19043E-01
  0.58698E-03  0.79111E-03  0.12768E-02  0.17416E-02  0.19262E-02  0.19968E-02
  0.22792E-02  0.27326E-02  0.29507E-02  0.27014E-02  0.22458E-02  0.20162E-02
  0.21135E-02  0.22550E-02  0.21604E-02  0.18760E-02  0.17161E-02  0.19388E-02
  0.24788E-02  0.29867E-02  0.31842E-02  0.32098E-02  0.35501E-02  0.45623E-02
  0.61178E-02  0.77876E-02  0.93215E-02  0.10834E-01  0.12559E-01  0.14562E-01
  0.16726E-01  0.18863E-01  0.20749E-01  0.22144E-01  0.22906E-01  0.23082E-01
  0.22826E-01  0.22268E-01  0.21510E-01  0.20700E-01  0.19999E-01  0.19489E-01
  0.19162E-01  0.19012E-01  0.19053E-01  0.19261E-01  0.19580E-01  0.20006E-01
  0.35512E-03  0.73105E-03  0.12376E-02  0.15134E-02  0.15478E-02  0.16816E-02
  0.20663E-02  0.23931E-02  0.23073E-02  0.19098E-02  0.16377E-02  0.17137E-02
  0.19122E-02  0.18864E-02  0.15853E-02  0.12885E-02  0.13065E-02  0.16831E-02
  0.21498E-02  0.23737E-02  0.23167E-02  0.23506E-02  0.29315E-02  0.41405E-02
  0.56245E-02  0.70113E-02  0.82797E-02  0.96783E-02  0.11399E-01  0.13431E-01
  0.15632E-01  0.17790E-01  0.19623E-01  0.20892E-01  0.21564E-01  0.21802E-01
  0.21767E-01  0.21510E-01  0.21075E-01  0.20593E-01  0.20209E-01  0.19962E-01
  0.19824E-01  0.19783E-01  0.19850E-01  0.20003E-01  0.20216E-01  0.20510E-01
  0.22093E-03  0.68170E-03  0.10373E-02  0.10737E-02  0.10514E-02  0.12970E-02
  0.16866E-02  0.18022E-02  0.15345E-02  0.12490E-02  0.12920E-02  0.15490E-02
  0.16289E-02  0.13626E-02  0.97629E-03  0.81926E-03  0.10246E-02  0.14125E-02
  0.16585E-02  0.15969E-02  0.14287E-02  0.15951E-02  0.23640E-02  0.35635E-02
  0.47932E-02  0.58591E-02  0.69155E-02  0.82253E-02  0.99143E-02  0.11951E-01
  0.14194E-01  0.16374E-01  0.18159E-01  0.19359E-01  0.20061E-01  0.20466E-01
  0.20677E-01  0.20700E-01  0.20593E-01  0.20485E-01  0.20438E-01  0.20409E-01
  0.20360E-01  0.20323E-01  0.20336E-01  0.20388E-01  0.20459E-01  0.20553E-01
  0.14932E-03  0.53603E-03  0.62059E-03  0.47372E-03  0.51201E-03  0.86766E-03
  0.11770E-02  0.11073E-02  0.83708E-03  0.79595E-03  0.10662E-02  0.12919E-02
  0.11619E-02  0.77757E-03  0.49461E-03  0.53647E-03  0.81951E-03  0.10640E-02
  0.10350E-02  0.76511E-03  0.58809E-03  0.87498E-03  0.16776E-02  0.26870E-02
  0.35798E-02  0.43385E-02  0.52010E-02  0.64014E-02  0.80385E-02  0.10087E-01
  0.12378E-01  0.14585E-01  0.16388E-01  0.17689E-01  0.18609E-01  0.19278E-01
  0.19728E-01  0.19999E-01  0.20209E-01  0.20438E-01  0.20635E-01  0.20709E-01
  0.20667E-01  0.20590E-01  0.20512E-01  0.20409E-01  0.20271E-01  0.20091E-01
  0.35407E-04  0.21072E-03  0.33883E-04 -0.14987E-03  0.36602E-04  0.44501E-03
  0.61444E-03  0.43413E-03  0.28135E-03  0.46598E-03  0.80859E-03  0.90920E-03
  0.66228E-03  0.33693E-03  0.23022E-03  0.38308E-03  0.59664E-03  0.61582E-03
  0.33217E-03 -0.82062E-04 -0.25568E-03  0.60086E-04  0.74044E-03  0.14284E-02
  0.19211E-02  0.23477E-02  0.29978E-02  0.40912E-02  0.57114E-02  0.78059E-02
  0.10159E-01  0.12447E-01  0.14428E-01  0.16048E-01  0.17343E-01  0.18315E-01
  0.18988E-01  0.19489E-01  0.19962E-01  0.20409E-01  0.20709E-01  0.20799E-01
  0.20738E-01  0.20588E-01  0.20350E-01  0.20018E-01  0.19611E-01  0.19096E-01
 -0.21215E-03 -0.29177E-03 -0.60757E-03 -0.68428E-03 -0.35097E-03  0.13663E-04
  0.29075E-04 -0.16065E-03 -0.12823E-03  0.22602E-03  0.56373E-03  0.57269E-03
  0.31818E-03  0.93256E-04  0.79715E-04  0.21525E-03  0.27956E-03  0.60885E-04
 -0.45449E-03 -0.99327E-03 -0.11883E-02 -0.94124E-03 -0.53413E-03 -0.31348E-03
 -0.31594E-03 -0.25403E-03  0.21217E-03  0.12755E-02  0.29661E-02  0.51735E-02
  0.76619E-02  0.10164E-01  0.12497E-01  0.14563E-01  0.16264E-01  0.17529E-01
  0.18433E-01  0.19162E-01  0.19824E-01  0.20360E-01  0.20667E-01  0.20738E-01
  0.20614E-01  0.20307E-01  0.19821E-01  0.19204E-01  0.18471E-01  0.17515E-01
 -0.63009E-03 -0.91664E-03 -0.12308E-02 -0.11439E-02 -0.74081E-03 -0.48396E-03
 -0.55166E-03 -0.61870E-03 -0.35124E-03  0.13251E-03  0.43781E-03  0.37367E-03
  0.10471E-03 -0.93590E-04 -0.10192E-03 -0.31330E-04 -0.13765E-03 -0.61497E-03
 -0.13659E-02 -0.20128E-02 -0.22547E-02 -0.22046E-02 -0.22670E-02 -0.26726E-02
 -0.32228E-02 -0.34849E-02 -0.31182E-02 -0.19897E-02 -0.12514E-03  0.23264E-02
  0.51210E-02  0.80061E-02  0.10783E-01  0.13278E-01  0.15330E-01  0.16889E-01
  0.18063E-01  0.19012E-01  0.19783E-01  0.20323E-01  0.20590E-01  0.20588E-01
  0.20307E-01  0.19744E-01  0.18957E-01  0.18006E-01  0.16825E-01  0.15244E-01
 -0.12099E-02 -0.16274E-02 -0.18591E-02 -0.16324E-02 -0.12265E-02 -0.10449E-02
 -0.10519E-02 -0.87563E-03 -0.36763E-03  0.18204E-03  0.39909E-03  0.22057E-03
 -0.10502E-03 -0.29712E-03 -0.28984E-03 -0.29422E-03 -0.63569E-03 -0.14321E-02
 -0.24082E-02 -0.31358E-02 -0.35052E-02 -0.38581E-02 -0.45869E-02 -0.56827E-02
 -0.67382E-02 -0.72869E-02 -0.70274E-02 -0.58123E-02 -0.36312E-02 -0.66959E-03
  0.27166E-02  0.61591E-02  0.93946E-02  0.12251E-01  0.14622E-01  0.16494E-01
  0.17944E-01  0.19053E-01  0.19850E-01  0.20336E-01  0.20512E-01  0.20350E-01
  0.19821E-01  0.18957E-01  0.17831E-01  0.16426E-01  0.14595E-01  0.12221E-01
 -0.19342E-02 -0.24280E-02 -0.25489E-02 -0.22102E-02 -0.17939E-02 -0.15774E-02
 -0.13859E-02 -0.92125E-03 -0.23711E-03  0.28430E-03  0.35521E-03  0.58234E-04
 -0.27438E-03 -0.38917E-03 -0.35595E-03 -0.53354E-03 -0.12364E-02 -0.23803E-02
 -0.35283E-02 -0.43621E-02 -0.50448E-02 -0.60162E-02 -0.74854E-02 -0.92306E-02
 -0.10823E-01 -0.11846E-01 -0.11883E-01 -0.10539E-01 -0.77057E-02 -0.37650E-02
  0.58566E-03  0.47503E-02  0.84559E-02  0.11653E-01  0.14335E-01  0.16486E-01
  0.18112E-01  0.19261E-01  0.20003E-01  0.20388E-01  0.20409E-01  0.20018E-01
  0.19204E-01  0.18006E-01  0.16426E-01  0.14364E-01  0.11715E-01  0.84812E-02
 -0.27949E-02 -0.33119E-02 -0.32854E-02 -0.28151E-02 -0.23208E-02 -0.19555E-02
 -0.14958E-02 -0.77731E-03 -0.11358E-04  0.41386E-03  0.34580E-03  0.96024E-05