
             +---------------------------------------------------+
             |                                                   |
             |                   WANNIER90                       |
             |                                                   |
             +---------------------------------------------------+
             |                                                   |
             |        Welcome to the Maximally-Localized         |
             |        Generalized Wannier Functions code         |
             |            http://www.wannier.org                 |
             |                                                   |
             |                                                   |
             |  Wannier90 Developer Group:                       |
             |    Giovanni Pizzi    (EPFL)                       |
             |    Valerio Vitale    (Cambridge)                  |
             |    David Vanderbilt  (Rutgers University)         |
             |    Nicola Marzari    (EPFL)                       |
             |    Ivo Souza         (Universidad del Pais Vasco) |
             |    Arash A. Mostofi  (Imperial College London)    |
             |    Jonathan R. Yates (University of Oxford)       |
             |                                                   |
             |  For the full list of Wannier90 3.x authors,      |
             |  please check the code documentation and the      |
             |  README on the GitHub page of the code            |
             |                                                   |
             |                                                   |
             |  Please cite                                      |
             |                                                   |
             |  [ref] "Wannier90 as a community code:            |
             |        new features and applications",            |
             |        G. Pizzi et al., J. Phys. Cond. Matt. 32,  |
             |        165902 (2020).                             |
             |        http://doi.org/10.1088/1361-648X/ab51ff    |
             |                                                   |
             |  in any publications arising from the use of      |
             |  this code. For the method please cite            |
             |                                                   |
             |  [ref] "Maximally Localized Generalised Wannier   |
             |         Functions for Composite Energy Bands"     |
             |         N. Marzari and D. Vanderbilt              |
             |         Phys. Rev. B 56 12847 (1997)              |
             |                                                   |
             |  [ref] "Maximally Localized Wannier Functions     |
             |         for Entangled Energy Bands"               |
             |         I. Souza, N. Marzari and D. Vanderbilt    |
             |         Phys. Rev. B 65 035109 (2001)             |
             |                                                   |
             |                                                   |
             | Copyright (c) 1996-2020                           |
             |        The Wannier90 Developer Group and          |
             |        individual contributors                    |
             |                                                   |
             |      Release: 3.1.0        5th March    2020      |
             |                                                   |
             | This program is free software; you can            |
             | redistribute it and/or modify it under the terms  |
             | of the GNU General Public License as published by |
             | the Free Software Foundation; either version 2 of |
             | the License, or (at your option) any later version|
             |                                                   |
             | This program is distributed in the hope that it   |
             | will be useful, but WITHOUT ANY WARRANTY; without |
             | even the implied warranty of MERCHANTABILITY or   |
             | FITNESS FOR A PARTICULAR PURPOSE. See the GNU     |
             | General Public License for more details.          |
             |                                                   |
             | You should have received a copy of the GNU General|
             | Public License along with this program; if not,   |
             | write to the Free Software Foundation, Inc.,      |
             | 675 Mass Ave, Cambridge, MA 02139, USA.           |
             |                                                   |
             +---------------------------------------------------+
             |    Execution started on 26Jul2025 at 01:35:09     |
             +---------------------------------------------------+
 
 ******************************************************************************
 * -> Using CODATA 2006 constant values                                       *
 *    (http://physics.nist.gov/cuu/Constants/index.html)                      *
 * -> Using Bohr value from CODATA                                            *
 ******************************************************************************
 

 Running in serial (with serial executable)

                                    ------
                                    SYSTEM
                                    ------

                              Lattice Vectors (Ang)
                    a_1     0.000000   2.500000   2.500000
                    a_2     2.500000   0.000000   2.500000
                    a_3     2.500000   2.500000   0.000000

                   Unit Cell Volume:      31.25000  (Ang^3)

                        Reciprocal-Space Vectors (Ang^-1)
                    b_1    -1.256637   1.256637   1.256637
                    b_2     1.256637  -1.256637   1.256637
                    b_3     1.256637   1.256637  -1.256637
  
 *----------------------------------------------------------------------------*
 |   Site       Fractional Coordinate          Cartesian Coordinate (Ang)     |
 +----------------------------------------------------------------------------+
 | H    1   0.00000   0.00000   0.00000   |    0.00000   0.00000   0.00000    |
 | H    2   0.25000   0.25000   0.25000   |    1.25000   1.25000   1.25000    |
 *----------------------------------------------------------------------------*
                                ------------
                                K-POINT GRID
                                ------------
  
             Grid size =  8 x  8 x  8      Total points =  512
  
  
 *---------------------------------- MAIN ------------------------------------*
 |  Number of Wannier Functions               :                 2             |
 |  Number of Objective Wannier Functions     :                 2             |
 |  Number of input Bloch states              :                 2             |
 |  Output verbosity (1=low, 5=high)          :                 1             |
 |  Timing Level (1=low, 5=high)              :                 1             |
 |  Optimisation (0=memory, 3=speed)          :                 3             |
 |  Length Unit                               :               Ang             |
 |  Post-processing setup (write *.nnkp)      :                 F             |
 |  Using Gamma-only branch of algorithms     :                 F             |
 *----------------------------------------------------------------------------*
 *------------------------------- WANNIERISE ---------------------------------*
 |  Total number of iterations                :                 0             |
 |  Number of CG steps before reset           :                 5             |
 |  Trial step length for line search         :             2.000             |
 |  Convergence tolerence                     :         0.100E-09             |
 |  Convergence window                        :                -1             |
 |  Iterations between writing output         :                 1             |
 |  Iterations between backing up to disk     :               100             |
 |  Write r^2_nm to file                      :                 F             |
 |  Write xyz WF centres to file              :                 T             |
 |  Write on-site energies <0n|H|0n> to file  :                 F             |
 |  Use guiding centre to control phases      :                 F             |
 |  Use phases for initial projections        :                 F             |
 *----------------------------------------------------------------------------*
 Time to read parameters        0.076 (sec)

 *---------------------------------- K-MESH ----------------------------------*
 +----------------------------------------------------------------------------+
 |                    Distance to Nearest-Neighbour Shells                    |
 |                    ------------------------------------                    |
 |          Shell             Distance (Ang^-1)          Multiplicity         |
 |          -----             -----------------          ------------         |
 |             1                   0.272070                      8            |
 |             2                   0.314159                      6            |
 |             3                   0.444288                     12            |
 |             4                   0.520974                     24            |
 |             5                   0.544140                      8            |
 |             6                   0.628319                      6            |
 |             7                   0.684694                     24            |
 |             8                   0.702481                     24            |
 |             9                   0.769530                     24            |
 |            10                   0.816210                     32            |
 |            11                   0.888577                     12            |
 |            12                   0.929296                     48            |
 |            13                   0.942478                     30            |
 |            14                   0.993459                     24            |
 |            15                   1.030040                     24            |
 |            16                   1.041948                     24            |
 |            17                   1.088280                      8            |
 |            18                   1.121773                     48            |
 |            19                   1.132717                     24            |
 |            20                   1.175476                     48            |
 |            21                   1.206552                     72            |
 |            22                   1.256637                      6            |
 |            23                   1.285752                     24            |
 |            24                   1.295312                     48            |
 |            25                   1.332865                     36            |
 |            26                   1.360350                     56            |
 |            27                   1.369388                     24            |
 |            28                   1.404963                     24            |
 |            29                   1.431064                     72            |
 |            30                   1.439659                     48            |
 |            31                   1.473538                     24            |
 |            32                   1.498444                     48            |
 |            33                   1.539060                     24            |
 |            34                   1.562923                     72            |
 |            35                   1.570796                     30            |
 |            36                   1.601904                     72            |
 +----------------------------------------------------------------------------+
 | The b-vectors are chosen automatically                                     |
 | The following shells are used:   1                                         |
 +----------------------------------------------------------------------------+
 |                        Shell   # Nearest-Neighbours                        |
 |                        -----   --------------------                        |
 |                          1               8                                 |
 +----------------------------------------------------------------------------+
 | Completeness relation is fully satisfied [Eq. (B1), PRB 56, 12847 (1997)]  |
 +----------------------------------------------------------------------------+
 |                  b_k Vectors (Ang^-1) and Weights (Ang^2)                  |
 |                  ----------------------------------------                  |
 |            No.         b_k(x)      b_k(y)      b_k(z)        w_b           |
 |            ---        --------------------------------     --------        |
 |             1        -0.157080    0.157080    0.157080     5.066059        |
 |             2         0.157080   -0.157080   -0.157080     5.066059        |
 |             3         0.157080   -0.157080    0.157080     5.066059        |
 |             4        -0.157080    0.157080   -0.157080     5.066059        |
 |             5         0.157080    0.157080   -0.157080     5.066059        |
 |             6         0.157080    0.157080    0.157080     5.066059        |
 |             7        -0.157080   -0.157080    0.157080     5.066059        |
 |             8        -0.157080   -0.157080   -0.157080     5.066059        |
 +----------------------------------------------------------------------------+
 |                           b_k Directions (Ang^-1)                          |
 |                           -----------------------                          |
 |            No.           x           y           z                         |
 |            ---        --------------------------------                     |
 |             1        -0.157080    0.157080    0.157080                     |
 |             2         0.157080   -0.157080    0.157080                     |
 |             3         0.157080    0.157080   -0.157080                     |
 |             4         0.157080    0.157080    0.157080                     |
 +----------------------------------------------------------------------------+
  
 Time to get kmesh              1.410 (sec)
 *============================================================================*
 |                              MEMORY ESTIMATE                               |
 |         Maximum RAM allocated during each phase of the calculation         |
 *============================================================================*
 |                            Wannierise:            1.13 Mb                  |
 |                          plot_wannier:            1.13 Mb                  |
 *----------------------------------------------------------------------------*
  
 Starting a new Wannier90 calculation ...


 Reading overlaps from wannier90.mmn    : File generated by VASP: unknown system

 Reading projections from wannier90.amn : File generated by VASP: unknown system

 Time to read overlaps          0.022 (sec)

 Writing checkpoint file wannier90.chk... done


 *------------------------------- WANNIERISE ---------------------------------*
 +--------------------------------------------------------------------+<-- CONV
 | Iter  Delta Spread     RMS Gradient      Spread (Ang^2)      Time  |<-- CONV
 +--------------------------------------------------------------------+<-- CONV

 ------------------------------------------------------------------------------
 Initial State
  WF centre and spread    1  (  0.000001,  0.000001,  0.000001 )     0.97461906
  WF centre and spread    2  (  1.249999,  1.249999,  1.249999 )     0.97461906
  Sum of centres and spreads (  1.250000,  1.250000,  1.250000 )     1.94923813

      0     0.195E+01     0.0000000000        1.9492381268       0.00  <-- CONV
        O_D=      0.0195896 O_OD=      0.0079158 O_TOT=      1.9492381 <-- SPRD
 ------------------------------------------------------------------------------
 Final State
  WF centre and spread    1  (  0.000001,  0.000001,  0.000001 )     0.97461906
  WF centre and spread    2  (  1.249999,  1.249999,  1.249999 )     0.97461906
  Sum of centres and spreads (  1.250000,  1.250000,  1.250000 )     1.94923813

         Spreads (Ang^2)       Omega I      =     1.921732684
        ================       Omega D      =     0.019589628
                               Omega OD     =     0.007915815
    Final Spread (Ang^2)       Omega Total  =     1.949238127
 ------------------------------------------------------------------------------

 Wannier centres written to file wannier90_centres.xyz
 Time for wannierise            0.003 (sec)

 Writing checkpoint file wannier90.chk... done

 Time for plotting              0.000 (sec)
 Total Execution Time           1.513 (sec)

 *===========================================================================*
 |                             TIMING INFORMATION                            |
 *===========================================================================*
 |    Tag                                                Ncalls      Time (s)|
 |---------------------------------------------------------------------------|
 |kmesh: get                                        :         1         1.410|
 |overlap: allocate                                 :         1         0.000|
 |overlap: read                                     :         1         0.022|
 |wann: main                                        :         1         0.003|
 |plot: main                                        :         1         0.000|
 *---------------------------------------------------------------------------*

 All done: wannier90 exiting

             +---------------------------------------------------+
             |                                                   |
             |                   WANNIER90                       |
             |                                                   |
             +---------------------------------------------------+
             |                                                   |
             |        Welcome to the Maximally-Localized         |
             |        Generalized Wannier Functions code         |
             |            http://www.wannier.org                 |
             |                                                   |
             |                                                   |
             |  Wannier90 Developer Group:                       |
             |    Giovanni Pizzi    (EPFL)                       |
             |    Valerio Vitale    (Cambridge)                  |
             |    David Vanderbilt  (Rutgers University)         |
             |    Nicola Marzari    (EPFL)                       |
             |    Ivo Souza         (Universidad del Pais Vasco) |
             |    Arash A. Mostofi  (Imperial College London)    |
             |    Jonathan R. Yates (University of Oxford)       |
             |                                                   |
             |  For the full list of Wannier90 3.x authors,      |
             |  please check the code documentation and the      |
             |  README on the GitHub page of the code            |
             |                                                   |
             |                                                   |
             |  Please cite                                      |
             |                                                   |
             |  [ref] "Wannier90 as a community code:            |
             |        new features and applications",            |
             |        G. Pizzi et al., J. Phys. Cond. Matt. 32,  |
             |        165902 (2020).                             |
             |        http://doi.org/10.1088/1361-648X/ab51ff    |
             |                                                   |
             |  in any publications arising from the use of      |
             |  this code. For the method please cite            |
             |                                                   |
             |  [ref] "Maximally Localized Generalised Wannier   |
             |         Functions for Composite Energy Bands"     |
             |         N. Marzari and D. Vanderbilt              |
             |         Phys. Rev. B 56 12847 (1997)              |
             |                                                   |
             |  [ref] "Maximally Localized Wannier Functions     |
             |         for Entangled Energy Bands"               |
             |         I. Souza, N. Marzari and D. Vanderbilt    |
             |         Phys. Rev. B 65 035109 (2001)             |
             |                                                   |
             |                                                   |
             | Copyright (c) 1996-2020                           |
             |        The Wannier90 Developer Group and          |
             |        individual contributors                    |
             |                                                   |
             |      Release: 3.1.0        5th March    2020      |
             |                                                   |
             | This program is free software; you can            |
             | redistribute it and/or modify it under the terms  |
             | of the GNU General Public License as published by |
             | the Free Software Foundation; either version 2 of |
             | the License, or (at your option) any later version|
             |                                                   |
             | This program is distributed in the hope that it   |
             | will be useful, but WITHOUT ANY WARRANTY; without |
             | even the implied warranty of MERCHANTABILITY or   |
             | FITNESS FOR A PARTICULAR PURPOSE. See the GNU     |
             | General Public License for more details.          |
             |                                                   |
             | You should have received a copy of the GNU General|
             | Public License along with this program; if not,   |
             | write to the Free Software Foundation, Inc.,      |
             | 675 Mass Ave, Cambridge, MA 02139, USA.           |
             |                                                   |
             +---------------------------------------------------+
             |    Execution started on 26Jul2025 at 01:35:11     |
             +---------------------------------------------------+
 
 ******************************************************************************
 * -> Using CODATA 2006 constant values                                       *
 *    (http://physics.nist.gov/cuu/Constants/index.html)                      *
 * -> Using Bohr value from CODATA                                            *
 ******************************************************************************
 

 Running in serial (with serial executable)

                                    ------
                                    SYSTEM
                                    ------

                              Lattice Vectors (Ang)
                    a_1     0.000000   2.500000   2.500000
                    a_2     2.500000   0.000000   2.500000
                    a_3     2.500000   2.500000   0.000000

                   Unit Cell Volume:      31.25000  (Ang^3)

                        Reciprocal-Space Vectors (Ang^-1)
                    b_1    -1.256637   1.256637   1.256637
                    b_2     1.256637  -1.256637   1.256637
                    b_3     1.256637   1.256637  -1.256637
  
 *----------------------------------------------------------------------------*
 |   Site       Fractional Coordinate          Cartesian Coordinate (Ang)     |
 +----------------------------------------------------------------------------+
 | H    1   0.00000   0.00000   0.00000   |    0.00000   0.00000   0.00000    |
 | H    2   0.25000   0.25000   0.25000   |    1.25000   1.25000   1.25000    |
 *----------------------------------------------------------------------------*
                                ------------
                                K-POINT GRID
                                ------------
  
             Grid size =  8 x  8 x  8      Total points =  512
  
  
 *---------------------------------- MAIN ------------------------------------*
 |  Number of Wannier Functions               :                 2             |
 |  Number of Objective Wannier Functions     :                 2             |
 |  Number of input Bloch states              :                 2             |
 |  Output verbosity (1=low, 5=high)          :                 1             |
 |  Timing Level (1=low, 5=high)              :                 1             |
 |  Optimisation (0=memory, 3=speed)          :                 3             |
 |  Length Unit                               :               Ang             |
 |  Post-processing setup (write *.nnkp)      :                 F             |
 |  Using Gamma-only branch of algorithms     :                 F             |
 *----------------------------------------------------------------------------*
 *------------------------------- WANNIERISE ---------------------------------*
 |  Total number of iterations                :                 0             |
 |  Number of CG steps before reset           :                 5             |
 |  Trial step length for line search         :             2.000             |
 |  Convergence tolerence                     :         0.100E-09             |
 |  Convergence window                        :                -1             |
 |  Iterations between writing output         :                 1             |
 |  Iterations between backing up to disk     :               100             |
 |  Write r^2_nm to file                      :                 F             |
 |  Write xyz WF centres to file              :                 T             |
 |  Write on-site energies <0n|H|0n> to file  :                 F             |
 |  Use guiding centre to control phases      :                 F             |
 |  Use phases for initial projections        :                 F             |
 *----------------------------------------------------------------------------*
 *-------------------------------- PLOTTING ----------------------------------*
 |  Plotting interpolated bandstructure       :                 T             |
 |   Number of K-path sections                :                10             |
 |   Divisions along first K-path section     :                40             |
 |   Output format                            :          gnuplot              |
 |   Output mode                              :               s-k             |
 *----------------------------------------------------------------------------*
 |   K-space path sections:                                                   |
 |    From: Γ      0.000  0.000  0.000     To: X       0.500  0.000  0.500   |
 |    From: X       0.500  0.000  0.500     To: W       0.500  0.250  0.750   |
 |    From: W       0.500  0.250  0.750     To: K       0.375  0.375  0.750   |
 |    From: K       0.375  0.375  0.750     To: Γ      0.000  0.000  0.000   |
 |    From: Γ      0.000  0.000  0.000     To: L       0.500  0.500  0.500   |
 |    From: L       0.500  0.500  0.500     To: U       0.625  0.250  0.625   |
 |    From: U       0.625  0.250  0.625     To: W       0.500  0.250  0.750   |
 |    From: W       0.500  0.250  0.750     To: L       0.500  0.500  0.500   |
 |    From: L       0.500  0.500  0.500     To: K       0.375  0.375  0.750   |
 |    From: U       0.625  0.250  0.625     To: X       0.500  0.000  0.500   |
 *----------------------------------------------------------------------------*
 |  Plotting Hamiltonian in WF basis          :                 T             |
 *----------------------------------------------------------------------------*
 Time to read parameters        0.029 (sec)

 *---------------------------------- K-MESH ----------------------------------*
 +----------------------------------------------------------------------------+
 |                    Distance to Nearest-Neighbour Shells                    |
 |                    ------------------------------------                    |
 |          Shell             Distance (Ang^-1)          Multiplicity         |
 |          -----             -----------------          ------------         |
 |             1                   0.272070                      8            |
 |             2                   0.314159                      6            |
 |             3                   0.444288                     12            |
 |             4                   0.520974                     24            |
 |             5                   0.544140                      8            |
 |             6                   0.628319                      6            |
 |             7                   0.684694                     24            |
 |             8                   0.702481                     24            |
 |             9                   0.769530                     24            |
 |            10                   0.816210                     32            |
 |            11                   0.888577                     12            |
 |            12                   0.929296                     48            |
 |            13                   0.942478                     30            |
 |            14                   0.993459                     24            |
 |            15                   1.030040                     24            |
 |            16                   1.041948                     24            |
 |            17                   1.088280                      8            |
 |            18                   1.121773                     48            |
 |            19                   1.132717                     24            |
 |            20                   1.175476                     48            |
 |            21                   1.206552                     72            |
 |            22                   1.256637                      6            |
 |            23                   1.285752                     24            |
 |            24                   1.295312                     48            |
 |            25                   1.332865                     36            |
 |            26                   1.360350                     56            |
 |            27                   1.369388                     24            |
 |            28                   1.404963                     24            |
 |            29                   1.431064                     72            |
 |            30                   1.439659                     48            |
 |            31                   1.473538                     24            |
 |            32                   1.498444                     48            |
 |            33                   1.539060                     24            |
 |            34                   1.562923                     72            |
 |            35                   1.570796                     30            |
 |            36                   1.601904                     72            |
 +----------------------------------------------------------------------------+
 | The b-vectors are chosen automatically                                     |
 | The following shells are used:   1                                         |
 +----------------------------------------------------------------------------+
 |                        Shell   # Nearest-Neighbours                        |
 |                        -----   --------------------                        |
 |                          1               8                                 |
 +----------------------------------------------------------------------------+
 | Completeness relation is fully satisfied [Eq. (B1), PRB 56, 12847 (1997)]  |
 +----------------------------------------------------------------------------+
 |                  b_k Vectors (Ang^-1) and Weights (Ang^2)                  |
 |                  ----------------------------------------                  |
 |            No.         b_k(x)      b_k(y)      b_k(z)        w_b           |
 |            ---        --------------------------------     --------        |
 |             1        -0.157080    0.157080    0.157080     5.066059        |
 |             2         0.157080   -0.157080   -0.157080     5.066059        |
 |             3         0.157080   -0.157080    0.157080     5.066059        |
 |             4        -0.157080    0.157080   -0.157080     5.066059        |
 |             5         0.157080    0.157080   -0.157080     5.066059        |
 |             6         0.157080    0.157080    0.157080     5.066059        |
 |             7        -0.157080   -0.157080    0.157080     5.066059        |
 |             8        -0.157080   -0.157080   -0.157080     5.066059        |
 +----------------------------------------------------------------------------+
 |                           b_k Directions (Ang^-1)                          |
 |                           -----------------------                          |
 |            No.           x           y           z                         |
 |            ---        --------------------------------                     |
 |             1        -0.157080    0.157080    0.157080                     |
 |             2         0.157080   -0.157080    0.157080                     |
 |             3         0.157080    0.157080   -0.157080                     |
 |             4         0.157080    0.157080    0.157080                     |
 +----------------------------------------------------------------------------+
  
 Time to get kmesh              1.164 (sec)
 *============================================================================*
 |                              MEMORY ESTIMATE                               |
 |         Maximum RAM allocated during each phase of the calculation         |
 *============================================================================*
 |                            Wannierise:            1.13 Mb                  |
 |                          plot_wannier:            1.13 Mb                  |
 *----------------------------------------------------------------------------*
  
 Reading restart information from file wannier90.chk :
 written on 26Jul2025 at 01:35:11 ... done

 Restarting Wannier90 from plotting routines ...

 *---------------------------------------------------------------------------*
 |                               PLOTTING                                    |
 *---------------------------------------------------------------------------*

 !!!! Kpoint grid does not include Gamma.  Interpolation may be incorrect. !!!!

 Calculating interpolated band-structure

 Time to calculate interpolated band structure       0.106 (sec)

 Time for plotting              0.264 (sec)
 Total Execution Time           1.458 (sec)

 *===========================================================================*
 |                             TIMING INFORMATION                            |
 *===========================================================================*
 |    Tag                                                Ncalls      Time (s)|
 |---------------------------------------------------------------------------|
 |kmesh: get                                        :         1         1.163|
 |plot: main                                        :         1         0.264|
 *---------------------------------------------------------------------------*

 All done: wannier90 exiting
      0.500  0.500  0.500     To: K       0.375  0.375  0.750   |
 |    From: U       0.625  0.250  0.625     To: X       0.500  0.000  0.500   |
 *----------------------------------------------------------------------------*
 |  Plotting Hamiltonian in WF basis          :                 T             |
 *----------------------------------------------------------------------------*
 Time to read parameters        0.038 (sec)

 *---------------------------------- K-MESH ----------------------------------*
 +----------------------------------------------------------------------------+
 |                    Distance to Nearest-Neighbour Shells                    |
 |                    ------------------------------------                    |
 |          Shell             Distance (Ang^-1)          Multiplicity         |
 |          -----             -----------------          ------------         |
 |             1                   0.272070                      8            |
 |             2                   0.314159                      6            |
 |             3                   0.444288                     12            |
 |             4                   0.520974                     24            |
 |             5                   0.544140                      8            |
 |             6                   0.628319                      6            |
 |             7                   0.684694                     24            |
 |             8                   0.702481                     24            |
 |             9                   0.769530                     24            |
 |            10                   0.816210                     32            |
 |            11                   0.888577                     12            |
 |            12                   0.929296                     48            |
 |            13                   0.942478                     30            |
 |            14                   0.993459                     24            |
 |            15                   1.030040                     24            |
 |            16                   1.041948                     24            |
 |            17                   1.088280                      8            |
 |            18                   1.121773                     48            |
 |            19                   1.132717                     24            |
 |            20                   1.175476                     48            |
 |            21                   1.206552                     72            |
 |            22                   1.256637                      6            |
 |            23                   1.285752                     24            |
 |            24                   1.295312                     48            |
 |            25                   1.332865                     36            |
 |            26                   1.360350                     56            |
 |            27                   1.369388                     24            |
 |            28                   1.404963                     24            |
 |            29                   1.431064                     72            |
 |            30                   1.439659                     48            |
 |            31                   1.473538                     24            |
 |            32                   1.498444                     48            |
 |            33                   1.539060                     24            |
 |            34                   1.562923                     72            |
 |            35                   1.570796                     30            |
 |            36                   1.601904                     72            |
 +----------------------------------------------------------------------------+
 | The b-vectors are chosen automatically                                     |
 | The following shells are used:   1                                         |
 +----------------------------------------------------------------------------+
 |                        Shell   # Nearest-Neighbours                        |
 |                        -----   --------------------                        |
 |                          1               8                                 |
 +----------------------------------------------------------------------------+
 | Completeness relation is fully satisfied [Eq. (B1), PRB 56, 12847 (1997)]  |
 +----------------------------------------------------------------------------+
 |                  b_k Vectors (Ang^-1) and Weights (Ang^2)                  |
 |                  ----------------------------------------                  |
 |            No.         b_k(x)      b_k(y)      b_k(z)        w_b           |
 |            ---        --------------------------------     --------        |
 |             1        -0.157080    0.157080    0.157080     5.066059        |
 |             2         0.157080   -0.157080   -0.157080     5.066059        |
 |             3         0.157080   -0.157080    0.157080     5.066059        |
 |             4        -0.157080    0.157080   -0.157080     5.066059        |
 |             5         0.157080    0.157080   -0.157080     5.066059        |
 |             6         0.157080    0.157080    0.157080     5.066059        |
 |             7        -0.157080   -0.157080    0.157080     5.066059        |
 |             8        -0.157080   -0.157080   -0.157080     5.066059        |
 +----------------------------------------------------------------------------+
 |                           b_k Directions (Ang^-1)                          |
 |                           -----------------------                          |
 |            No.           x           y           z                         |
 |            ---        --------------------------------                     |
 |             1        -0.157080    0.157080    0.157080                     |
 |             2         0.157080   -0.157080    0.157080                     |
 |             3         0.157080    0.157080   -0.157080                     |
 |             4         0.157080    0.157080    0.157080                     |
 +----------------------------------------------------------------------------+
  
 Time to get kmesh              1.163 (sec)
 *============================================================================*
 |                              MEMORY ESTIMATE                               |
 |         Maximum RAM allocated during each phase of the calculation         |
 *============================================================================*
 |                            Wannierise:            1.13 Mb                  |
 |                          plot_wannier:            1.13 Mb                  |
 *----------------------------------------------------------------------------*
  
 Reading restart information from file wannier90.chk :
 written on 26Jul2025 at 01:35:11 ... done

 Restarting Wannier90 from plotting routines ...

 *---------------------------------------------------------------------------*
 |                               PLOTTING                                    |
 *---------------------------------------------------------------------------*

 !!!! Kpoint grid does not include Gamma.  Interpolation may be incorrect. !!!!

 Calculating interpolated band-structure

 Time to calculate interpolated band structure       0.106 (sec)

 Time for plotting              0.264 (sec)
 Total Execution Time           1.466 (sec)

 *===========================================================================*
 |                             TIMING INFORMATION                            |
 *===========================================================================*
 |    Tag                                                Ncalls      Time (s)|
 |---------------------------------------------------------------------------|
 |kmesh: get                                        :         1         1.163|
 |plot: main                                        :         1         0.264|
 *---------------------------------------------------------------------------*

 All done: wannier90 exiting
      0.500  0.500  0.500     To: K       0.375  0.375  0.750   |
 |    From: U       0.625  0.250  0.625     To: X       0.500  0.000  0.500   |
 *----------------------------------------------------------------------------*
 |  Plotting Hamiltonian in WF basis          :                 T             |
 *----------------------------------------------------------------------------*
 Time to read parameters        0.041 (sec)

 *---------------------------------- K-MESH ----------------------------------*
 +----------------------------------------------------------------------------+
 |                    Distance to Nearest-Neighbour Shells                    |
 |                    ------------------------------------                    |
 |          Shell             Distance (Ang^-1)          Multiplicity         |
 |          -----             -----------------          ------------         |
 |             1                   0.272070                      8            |
 |             2                   0.314159                      6            |
 |             3                   0.444288                     12            |
 |             4                   0.520974                     24            |
 |             5                   0.544140                      8            |
 |             6                   0.628319                      6            |
 |             7                   0.684694                     24            |
 |             8                   0.702481                     24            |
 |             9                   0.769530                     24            |
 |            10                   0.816210                     32            |
 |            11                   0.888577                     12            |
 |            12                   0.929296                     48            |
 |            13                   0.942478                     30            |
 |            14                   0.993459                     24            |
 |            15                   1.030040                     24            |
 |            16                   1.041948                     24            |
 |            17                   1.088280                      8            |
 |            18                   1.121773                     48            |
 |            19                   1.132717                     24            |
 |            20                   1.175476                     48            |
 |            21                   1.206552                     72            |
 |            22                   1.256637                      6            |
 |            23                   1.285752                     24            |
 |            24                   1.295312                     48            |
 |            25                   1.332865                     36            |
 |            26                   1.360350                     56            |
 |            27                   1.369388                     24            |
 |            28                   1.404963                     24            |
 |            29                   1.431064                     72            |
 |            30                   1.439659                     48            |
 |            31                   1.473538                     24            |
 |            32                   1.498444                     48            |
 |            33                   1.539060                     24            |
 |            34                   1.562923                     72            |
 |            35                   1.570796                     30            |
 |            36                   1.601904                     72            |
 +----------------------------------------------------------------------------+
 | The b-vectors are chosen automatically                                     |
 | The following shells are used:   1                                         |
 +----------------------------------------------------------------------------+
 |                        Shell   # Nearest-Neighbours                        |
 |                        -----   --------------------                        |
 |                          1               8                                 |
 +----------------------------------------------------------------------------+
 | Completeness relation is fully satisfied [Eq. (B1), PRB 56, 12847 (1997)]  |
 +----------------------------------------------------------------------------+
 |                  b_k Vectors (Ang^-1) and Weights (Ang^2)                  |
 |                  ----------------------------------------                  |
 |            No.         b_k(x)      b_k(y)      b_k(z)        w_b           |
 |            ---        --------------------------------     --------        |
 |             1        -0.157080    0.157080    0.157080     5.066059        |
 |             2         0.157080   -0.157080   -0.157080     5.066059        |
 |             3         0.157080   -0.157080    0.157080     5.066059        |
 |             4        -0.157080    0.157080   -0.157080     5.066059        |
 |             5         0.157080    0.157080   -0.157080     5.066059        |
 |             6         0.157080    0.157080    0.157080     5.066059        |
 |             7        -0.157080   -0.157080    0.157080     5.066059        |
 |             8        -0.157080   -0.157080   -0.157080     5.066059        |
 +----------------------------------------------------------------------------+
 |                           b_k Directions (Ang^-1)                          |
 |                           -----------------------                          |
 |            No.           x           y           z                         |
 |            ---        --------------------------------                     |
 |             1        -0.157080    0.157080    0.157080                     |
 |             2         0.157080   -0.157080    0.157080                     |
 |             3         0.157080    0.157080   -0.157080                     |
 |             4         0.157080    0.157080    0.157080                     |
 +----------------------------------------------------------------------------+
  
 Time to get kmesh              1.167 (sec)
 *============================================================================*
 |                              MEMORY ESTIMATE                               |
 |         Maximum RAM allocated during each phase of the calculation         |
 *============================================================================*
 |                            Wannierise:            1.13 Mb                  |
 |                          plot_wannier:            1.13 Mb                  |
 *----------------------------------------------------------------------------*
  
 Reading restart information from file wannier90.chk :
 written on 26Jul2025 at 01:35:11 ... done

 Restarting Wannier90 from plotting routines ...

 *---------------------------------------------------------------------------*
 |                               PLOTTING                                    |
 *---------------------------------------------------------------------------*

 !!!! Kpoint grid does not include Gamma.  Interpolation may be incorrect. !!!!

 Calculating interpolated band-structure

 Time to calculate interpolated band structure       0.106 (sec)

 Time for plotting              0.265 (sec)
 Total Execution Time           1.473 (sec)

 *===========================================================================*
 |                             TIMING INFORMATION                            |
 *===========================================================================*
 |    Tag                                                Ncalls      Time (s)|
 |---------------------------------------------------------------------------|
 |kmesh: get                                        :         1         1.167|
 |plot: main                                        :         1         0.265|
 *---------------------------------------------------------------------------*

 All done: wannier90 exiting
      0.500  0.500  0.500     To: K       0.375  0.375  0.750   |
 |    From: U       0.625  0.250  0.625     To: X       0.500  0.000  0.500   |
 *----------------------------------------------------------------------------*
 |  Plotting Hamiltonian in WF basis          :                 T             |
 *----------------------------------------------------------------------------*
 Time to read parameters        0.041 (sec)

 *---------------------------------- K-MESH ----------------------------------*
 +----------------------------------------------------------------------------+
 |                    Distance to Nearest-Neighbour Shells                    |
 |                    ------------------------------------                    |
 |          Shell             Distance (Ang^-1)          Multiplicity         |
 |          -----             -----------------          ------------         |
 |             1                   0.272070                      8            |
 |             2                   0.314159                      6            |
 |             3                   0.444288                     12            |
 |             4                   0.520974                     24            |
 |             5                   0.544140                      8            |
 |             6                   0.628319                      6            |
 |             7                   0.684694                     24            |
 |             8                   0.702481                     24            |
 |             9                   0.769530                     24            |
 |            10                   0.816210                     32            |
 |            11                   0.888577                     12            |
 |            12                   0.929296                     48            |
 |            13                   0.942478                     30            |
 |            14                   0.993459                     24            |
 |            15                   1.030040                     24            |
 |            16                   1.041948                     24            |
 |            17                   1.088280                      8            |
 |            18                   1.121773                     48            |
 |            19                   1.132717                     24            |
 |            20                   1.175476                     48            |
 |            21                   1.206552                     72            |
 |            22                   1.256637                      6            |
 |            23                   1.285752                     24            |
 |            24                   1.295312                     48            |
 |            25                   1.332865                     36            |
 |            26                   1.360350                     56            |
 |            27                   1.369388                     24            |
 |            28                   1.404963                     24            |
 |            29                   1.431064                     72            |
 |            30                   1.439659                     48            |
 |            31                   1.473538                     24            |
 |            32                   1.498444                     48            |
 |            33                   1.539060                     24            |
 |            34                   1.562923                     72            |
 |            35                   1.570796                     30            |
 |            36                   1.601904                     72            |
 +----------------------------------------------------------------------------+
 | The b-vectors are chosen automatically                                     |
 | The following shells are used:   1                                         |
 +----------------------------------------------------------------------------+
 |                        Shell   # Nearest-Neighbours                        |
 |                        -----   --------------------                        |
 |                          1               8                                 |
 +----------------------------------------------------------------------------+
 | Completeness relation is fully satisfied [Eq. (B1), PRB 56, 12847 (1997)]  |
 +----------------------------------------------------------------------------+
 |                  b_k Vectors (Ang^-1) and Weights (Ang^2)                  |
 |                  ----------------------------------------                  |
 |            No.         b_k(x)      b_k(y)      b_k(z)        w_b           |
 |            ---        --------------------------------     --------        |
 |             1        -0.157080    0.157080    0.157080     5.066059        |
 |             2         0.157080   -0.157080   -0.157080     5.066059        |
 |             3         0.157080   -0.157080    0.157080     5.066059        |
 |             4        -0.157080    0.157080   -0.157080     5.066059        |
 |             5         0.157080    0.157080   -0.157080     5.066059        |
 |             6         0.157080    0.157080    0.157080     5.066059        |
 |             7        -0.157080   -0.157080    0.157080     5.066059        |
 |             8        -0.157080   -0.157080   -0.157080     5.066059        |
 +----------------------------------------------------------------------------+
 |                           b_k Directions (Ang^-1)                          |
 |                           -----------------------                          |
 |            No.           x           y           z                         |
 |            ---        --------------------------------                     |
 |             1        -0.157080    0.157080    0.157080                     |
 |             2         0.157080   -0.157080    0.157080                     |
 |             3         0.157080    0.157080   -0.157080                     |
 |             4         0.157080    0.157080    0.157080                     |
 +----------------------------------------------------------------------------+
  
 Time to get kmesh              1.166 (sec)
 *============================================================================*
 |                              MEMORY ESTIMATE                               |
 |         Maximum RAM allocated during each phase of the calculation         |
 *============================================================================*
 |                            Wannierise:            1.13 Mb                  |
 |                          plot_wannier:            1.13 Mb                  |
 *----------------------------------------------------------------------------*
  
 Reading restart information from file wannier90.chk :
 written on 26Jul2025 at 01:35:11 ... done

 Restarting Wannier90 from plotting routines ...

 *---------------------------------------------------------------------------*
 |                               PLOTTING                                    |
 *---------------------------------------------------------------------------*

 !!!! Kpoint grid does not include Gamma.  Interpolation may be incorrect. !!!!

 Calculating interpolated band-structure

 Time to calculate interpolated band structure       0.106 (sec)

 Time for plotting              0.266 (sec)
 Total Execution Time           1.473 (sec)

 *===========================================================================*
 |                             TIMING INFORMATION                            |
 *===========================================================================*
 |    Tag                                                Ncalls      Time (s)|
 |---------------------------------------------------------------------------|
 |kmesh: get                                        :         1         1.166|
 |plot: main                                        :         1         0.266|
 *---------------------------------------------------------------------------*

 All done: wannier90 exiting
      0.500  0.500  0.500     To: K       0.375  0.375  0.750   |
 |    From: U       0.625  0.250  0.625     To: X       0.500  0.000  0.500   |
 *----------------------------------------------------------------------------*
 |  Plotting Hamiltonian in WF basis          :                 T             |
 *----------------------------------------------------------------------------*
 Time to read parameters        0.041 (sec)

 *---------------------------------- K-MESH ----------------------------------*
 +----------------------------------------------------------------------------+
 |                    Distance to Nearest-Neighbour Shells                    |
 |                    ------------------------------------                    |
 |          Shell             Distance (Ang^-1)          Multiplicity         |
 |          -----             -----------------          ------------         |
 |             1                   0.272070                      8            |
 |             2                   0.314159                      6            |
 |             3                   0.444288                     12            |
 |             4                   0.520974                     24            |
 |             5                   0.544140                      8            |
 |             6                   0.628319                      6            |
 |             7                   0.684694                     24            |
 |             8                   0.702481                     24            |
 |             9                   0.769530                     24            |
 |            10                   0.816210                     32            |
 |            11                   0.888577                     12            |
 |            12                   0.929296                     48            |
 |            13                   0.942478                     30            |
 |            14                   0.993459                     24            |
 |            15                   1.030040                     24            |
 |            16                   1.041948                     24            |
 |            17                   1.088280                      8            |
 |            18                   1.121773                     48            |
 |            19                   1.132717                     24            |
 |            20                   1.175476                     48            |
 |            21                   1.206552                     72            |
 |            22                   1.256637                      6            |
 |            23                   1.285752                     24            |
 |            24                   1.295312                     48            |
 |            25                   1.332865                     36            |
 |            26                   1.360350                     56            |
 |            27                   1.369388                     24            |
 |            28                   1.404963                     24            |
 |            29                   1.431064                     72            |
 |            30                   1.439659                     48            |
 |            31                   1.473538                     24            |
 |            32                   1.498444                     48            |
 |            33                   1.539060                     24            |
 |            34                   1.562923                     72            |
 |            35                   1.570796                     30            |
 |            36                   1.601904                     72            |
 +----------------------------------------------------------------------------+
 | The b-vectors are chosen automatically                                     |
 | The following shells are used:   1                                         |
 +----------------------------------------------------------------------------+
 |                        Shell   # Nearest-Neighbours                        |
 |                        -----   --------------------                        |
 |                          1               8                                 |
 +----------------------------------------------------------------------------+
 | Completeness relation is fully satisfied [Eq. (B1), PRB 56, 12847 (1997)]  |
 +----------------------------------------------------------------------------+
 |                  b_k Vectors (Ang^-1) and Weights (Ang^2)                  |
 |                  ----------------------------------------                  |
 |            No.         b_k(x)      b_k(y)      b_k(z)        w_b           |
 |            ---        --------------------------------     --------        |
 |             1        -0.157080    0.157080    0.157080     5.066059        |
 |             2         0.157080   -0.157080   -0.157080     5.066059        |
 |             3         0.157080   -0.157080    0.157080     5.066059        |
 |             4        -0.157080    0.157080   -0.157080     5.066059        |
 |             5         0.157080    0.157080   -0.157080     5.066059        |
 |             6         0.157080    0.157080    0.157080     5.066059        |
 |             7        -0.157080   -0.157080    0.157080     5.066059        |
 |             8        -0.157080   -0.157080   -0.157080     5.066059        |
 +----------------------------------------------------------------------------+
 |                           b_k Directions (Ang^-1)                          |
 |                           -----------------------                          |
 |            No.           x           y           z                         |
 |            ---        --------------------------------                     |
 |             1        -0.157080    0.157080    0.157080                     |
 |             2         0.157080   -0.157080    0.157080                     |
 |             3         0.157080    0.157080   -0.157080                     |
 |             4         0.157080    0.157080    0.157080                     |
 +----------------------------------------------------------------------------+
  
 Time to get kmesh              1.166 (sec)
 *============================================================================*
 |                              MEMORY ESTIMATE                               |
 |         Maximum RAM allocated during each phase of the calculation         |
 *============================================================================*
 |                            Wannierise:            1.13 Mb                  |
 |                          plot_wannier:            1.13 Mb                  |
 *----------------------------------------------------------------------------*
  
 Reading restart information from file wannier90.chk :
 written on 26Jul2025 at 01:35:11 ... done

 Restarting Wannier90 from plotting routines ...

 *---------------------------------------------------------------------------*
 |                               PLOTTING                                    |
 *---------------------------------------------------------------------------*

 !!!! Kpoint grid does not include Gamma.  Interpolation may be incorrect. !!!!

 Calculating interpolated band-structure

 Time to calculate interpolated band structure       0.106 (sec)

 Time for plotting              0.266 (sec)
 Total Execution Time           1.473 (sec)

 *===========================================================================*
 |                             TIMING INFORMATION                            |
 *===========================================================================*
 |    Tag                                                Ncalls      Time (s)|
 |---------------------------------------------------------------------------|
 |kmesh: get                                        :         1         1.166|
 |plot: main                                        :         1         0.266|
 *---------------------------------------------------------------------------*

 All done: wannier90 exiting
      0.500  0.500  0.500     To: K       0.375  0.375  0.750   |
 |    From: U       0.625  0.250  0.625     To: X       0.500  0.000  0.500   |
 *----------------------------------------------------------------------------*
 |  Plotting Hamiltonian in WF basis          :                 T             |
 *----------------------------------------------------------------------------*
 Time to read parameters        0.043 (sec)

 *---------------------------------- K-MESH ----------------------------------*
 +----------------------------------------------------------------------------+
 |                    Distance to Nearest-Neighbour Shells                    |
 |                    ------------------------------------                    |
 |          Shell             Distance (Ang^-1)          Multiplicity         |
 |          -----             -----------------          ------------         |
 |             1                   0.272070                      8            |
 |             2                   0.314159                      6            |
 |             3                   0.444288                     12            |
 |             4                   0.520974                     24            |
 |             5                   0.544140                      8            |
 |             6                   0.628319                      6            |
 |             7                   0.684694                     24            |
 |             8                   0.702481                     24            |
 |             9                   0.769530                     24            |
 |            10                   0.816210                     32            |
 |            11                   0.888577                     12            |
 |            12                   0.929296                     48            |
 |            13                   0.942478                     30            |
 |            14                   0.993459                     24            |
 |            15                   1.030040                     24            |
 |            16                   1.041948                     24            |
 |            17                   1.088280                      8            |
 |            18                   1.121773                     48            |
 |            19                   1.132717                     24            |
 |            20                   1.175476                     48            |
 |            21                   1.206552                     72            |
 |            22                   1.256637                      6            |
 |            23                   1.285752                     24            |
 |            24                   1.295312                     48            |
 |            25                   1.332865                     36            |
 |            26                   1.360350                     56            |
 |            27                   1.369388                     24            |
 |            28                   1.404963                     24            |
 |            29                   1.431064                     72            |
 |            30                   1.439659                     48            |
 |            31                   1.473538                     24            |
 |            32                   1.498444                     48            |
 |            33                   1.539060                     24            |
 |            34                   1.562923                     72            |
 |            35                   1.570796                     30            |
 |            36                   1.601904                     72            |
 +----------------------------------------------------------------------------+
 | The b-vectors are chosen automatically                                     |
 | The following shells are used:   1                                         |
 +----------------------------------------------------------------------------+
 |                        Shell   # Nearest-Neighbours                        |
 |                        -----   --------------------                        |
 |                          1               8                                 |
 +----------------------------------------------------------------------------+
 | Completeness relation is fully satisfied [Eq. (B1), PRB 56, 12847 (1997)]  |
 +----------------------------------------------------------------------------+
 |                  b_k Vectors (Ang^-1) and Weights (Ang^2)                  |
 |                  ----------------------------------------                  |
 |            No.         b_k(x)      b_k(y)      b_k(z)        w_b           |
 |            ---        --------------------------------     --------        |
 |             1        -0.157080    0.157080    0.157080     5.066059        |
 |             2         0.157080   -0.157080   -0.157080     5.066059        |
 |             3         0.157080   -0.157080    0.157080     5.066059        |
 |             4        -0.157080    0.157080   -0.157080     5.066059        |
 |             5         0.157080    0.157080   -0.157080     5.066059        |
 |             6         0.157080    0.157080    0.157080     5.066059        |
 |             7        -0.157080   -0.157080    0.157080     5.066059        |
 |             8        -0.157080   -0.157080   -0.157080     5.066059        |
 +----------------------------------------------------------------------------+
 |                           b_k Directions (Ang^-1)                          |
 |                           -----------------------                          |
 |            No.           x           y           z                         |
 |            ---        --------------------------------                     |
 |             1        -0.157080    0.157080    0.157080                     |
 |             2         0.157080   -0.157080    0.157080                     |
 |             3         0.157080    0.157080   -0.157080                     |
 |             4         0.157080    0.157080    0.157080                     |
 +----------------------------------------------------------------------------+
  
 Time to get kmesh              1.172 (sec)
 *============================================================================*
 |                              MEMORY ESTIMATE                               |
 |         Maximum RAM allocated during each phase of the calculation         |
 *============================================================================*
 |                            Wannierise:            1.13 Mb                  |
 |                          plot_wannier:            1.13 Mb                  |
 *----------------------------------------------------------------------------*
  
 Reading restart information from file wannier90.chk :
 written on 26Jul2025 at 01:35:11 ... done

 Restarting Wannier90 from plotting routines ...

 *---------------------------------------------------------------------------*
 |                               PLOTTING                                    |
 *---------------------------------------------------------------------------*

 !!!! Kpoint grid does not include Gamma.  Interpolation may be incorrect. !!!!

 Calculating interpolated band-structure

 Time to calculate interpolated band structure       0.106 (sec)

 Time for plotting              0.266 (sec)
 Total Execution Time           1.480 (sec)

 *===========================================================================*
 |                             TIMING INFORMATION                            |
 *===========================================================================*
 |    Tag                                                Ncalls      Time (s)|
 |---------------------------------------------------------------------------|
 |kmesh: get                                        :         1         1.171|
 |plot: main                                        :         1         0.266|
 *---------------------------------------------------------------------------*

 All done: wannier90 exiting
      0.500  0.500  0.500     To: K       0.375  0.375  0.750   |
 |    From: U       0.625  0.250  0.625     To: X       0.500  0.000  0.500   |
 *----------------------------------------------------------------------------*
 |  Plotting Hamiltonian in WF basis          :                 T             |
 *----------------------------------------------------------------------------*
 Time to read parameters        0.043 (sec)

 *---------------------------------- K-MESH ----------------------------------*
 +----------------------------------------------------------------------------+
 |                    Distance to Nearest-Neighbour Shells                    |
 |                    ------------------------------------                    |
 |          Shell             Distance (Ang^-1)          Multiplicity         |
 |          -----             -----------------          ------------         |
 |             1                   0.272070                      8            |
 |             2                   0.314159                      6            |
 |             3                   0.444288                     12            |
 |             4                   0.520974                     24            |
 |             5                   0.544140                      8            |
 |             6                   0.628319                      6            |
 |             7                   0.684694                     24            |
 |             8                   0.702481                     24            |
 |             9                   0.769530                     24            |
 |            10                   0.816210                     32            |
 |            11                   0.888577                     12            |
 |            12                   0.929296                     48            |
 |            13                   0.942478                     30            |
 |            14                   0.993459                     24            |
 |            15                   1.030040                     24            |
[...]
 |          Shell             Distance (Ang^-1)          Multiplicity         |
 |          -----             -----------------          ------------         |
 |             1                   0.272070                      8            |
 |             2                   0.314159                      6            |
 |             3                   0.444288                     12            |
 |             4                   0.520974                     24            |
 |             5                   0.544140                      8            |
 |             6                   0.628319                      6            |
 |             7                   0.684694                     24            |
 |             8                   0.702481                     24            |
 |             9                   0.769530                     24            |
 |            10                   0.816210                     32            |
 |            11                   0.888577                     12            |
 |            12                   0.929296                     48            |
 |            13                   0.942478                     30            |
 |            14                   0.993459                     24            |
 |            15                   1.030040                     24            |
 |            16                   1.041948                     24            |
 |            17                   1.088280                      8            |
 |            18                   1.121773                     48            |
 |            19                   1.132717                     24            |
 |            20                   1.175476                     48            |
 |            21                   1.206552                     72            |
 |            22                   1.256637                      6            |
 |            23                   1.285752                     24            |
 |            24                   1.295312                     48            |
 |            25                   1.332865                     36            |
 |            26                   1.360350                     56            |
 |            27                   1.369388                     24            |
 |            28                   1.404963                     24            |
 |            29                   1.431064                     72            |
 |            30                   1.439659                     48            |
 |            31                   1.473538                     24            |
 |            32                   1.498444                     48            |
 |            33                   1.539060                     24            |
 |            34                   1.562923                     72            |
 |            35                   1.570796                     30            |
 |            36                   1.601904                     72            |
 +----------------------------------------------------------------------------+
 | The b-vectors are chosen automatically                                     |
 | The following shells are used:   1                                         |
 +----------------------------------------------------------------------------+
 |                        Shell   # Nearest-Neighbours                        |
 |                        -----   --------------------                        |
 |                          1               8                                 |
 +----------------------------------------------------------------------------+
 | Completeness relation is fully satisfied [Eq. (B1), PRB 56, 12847 (1997)]  |
 +----------------------------------------------------------------------------+
 |                  b_k Vectors (Ang^-1) and Weights (Ang^2)                  |
 |                  ----------------------------------------                  |
 |            No.         b_k(x)      b_k(y)      b_k(z)        w_b           |
 |            ---        --------------------------------     --------        |
 |             1        -0.157080    0.157080    0.157080     5.066059        |
 |             2         0.157080   -0.157080   -0.157080     5.066059        |
 |             3         0.157080   -0.157080    0.157080     5.066059        |
 |             4        -0.157080    0.157080   -0.157080     5.066059        |
 |             5         0.157080    0.157080   -0.157080     5.066059        |
 |             6         0.157080    0.157080    0.157080     5.066059        |
 |             7        -0.157080   -0.157080    0.157080     5.066059        |
 |             8        -0.157080   -0.157080   -0.157080     5.066059        |
 +----------------------------------------------------------------------------+
 |                           b_k Directions (Ang^-1)                          |
 |                           -----------------------                          |
 |            No.           x           y           z                         |
 |            ---        --------------------------------                     |
 |             1        -0.157080    0.157080    0.157080                     |
 |             2         0.157080   -0.157080    0.157080                     |
 |             3         0.157080    0.157080   -0.157080                     |
 |             4         0.157080    0.157080    0.157080                     |
 +----------------------------------------------------------------------------+
  
 Time to get kmesh              1.362 (sec)
 *============================================================================*
 |                              MEMORY ESTIMATE                               |
 |         Maximum RAM allocated during each phase of the calculation         |
 *============================================================================*
 |                            Wannierise:            1.13 Mb                  |
 |                          plot_wannier:            1.13 Mb                  |
 *----------------------------------------------------------------------------*
  
 Reading restart information from file wannier90.chk :
 written on 26Jul2025 at 01:35:11 ... done

 Restarting Wannier90 from plotting routines ...

 *---------------------------------------------------------------------------*
 |                               PLOTTING                                    |
 *---------------------------------------------------------------------------*

 !!!! Kpoint grid does not include Gamma.  Interpolation may be incorrect. !!!!

 Calculating interpolated band-structure

 Time to calculate interpolated band structure       0.106 (sec)

 Time for plotting              0.264 (sec)
 Total Execution Time           1.703 (sec)

 *===========================================================================*
 |                             TIMING INFORMATION                            |
 *===========================================================================*
 |    Tag                                                Ncalls      Time (s)|
 |---------------------------------------------------------------------------|
 |kmesh: get                                        :         1         1.362|
 |plot: main                                        :         1         0.264|
 *---------------------------------------------------------------------------*

 All done: wannier90 exiting
    Shell   # Nearest-Neighbours                        |
 |                        -----   --------------------                        |
 |                          1               8                                 |
 +----------------------------------------------------------------------------+
 | Completeness relation is fully satisfied [Eq. (B1), PRB 56, 12847 (1997)]  |
 +----------------------------------------------------------------------------+
 |                  b_k Vectors (Ang^-1) and Weights (Ang^2)                  |
 |                  ----------------------------------------                  |
 |            No.         b_k(x)      b_k(y)      b_k(z)        w_b           |
 |            ---        --------------------------------     --------        |
 |             1        -0.157080    0.157080    0.157080     5.066059        |
 |             2         0.157080   -0.157080   -0.157080     5.066059        |
 |             3         0.157080   -0.157080    0.157080     5.066059        |
 |             4        -0.157080    0.157080   -0.157080     5.066059        |
 |             5         0.157080    0.157080   -0.157080     5.066059        |
 |             6         0.157080    0.157080    0.157080     5.066059        |
 |             7        -0.157080   -0.157080    0.157080     5.066059        |
 |             8        -0.157080   -0.157080   -0.157080     5.066059        |
 +----------------------------------------------------------------------------+
 |                           b_k Directions (Ang^-1)                          |
 |                           -----------------------                          |
 |            No.           x           y           z                         |
 |            ---        --------------------------------                     |
 |             1        -0.157080    0.157080    0.157080                     |
 |             2         0.157080   -0.157080    0.157080                     |
 |             3         0.157080    0.157080   -0.157080                     |
 |             4         0.157080    0.157080    0.157080                     |
 +----------------------------------------------------------------------------+
  
 Time to get kmesh              1.362 (sec)
 *============================================================================*
 |                              MEMORY ESTIMATE                               |
 |         Maximum RAM allocated during each phase of the calculation         |
 *============================================================================*
 |                            Wannierise:            1.13 Mb                  |
 |                          plot_wannier:            1.13 Mb                  |
 *----------------------------------------------------------------------------*
  
 Reading restart information from file wannier90.chk :
 written on 26Jul2025 at 01:35:11 ... done

 Restarting Wannier90 from plotting routines ...

 *---------------------------------------------------------------------------*
 |                               PLOTTING                                    |
 *---------------------------------------------------------------------------*

 !!!! Kpoint grid does not include Gamma.  Interpolation may be incorrect. !!!!

 Calculating interpolated band-structure

 Time to calculate interpolated band structure       0.106 (sec)

 Time for plotting              0.264 (sec)
 Total Execution Time           1.703 (sec)

 *===========================================================================*
 |                             TIMING INFORMATION                            |
 *===========================================================================*
 |    Tag                                                Ncalls      Time (s)|
 |---------------------------------------------------------------------------|
 |kmesh: get                                        :         1         1.362|
 |plot: main                                        :         1         0.264|
 *---------------------------------------------------------------------------*

 All done: wannier90 exiting
      0.500  0.500  0.500     To: K       0.375  0.375  0.750   |
 |    From: U       0.625  0.250  0.625     To: X       0.500  0.000  0.500   |
 *----------------------------------------------------------------------------*
 |  Plotting Hamiltonian in WF basis          :                 T             |
 *----------------------------------------------------------------------------*
 Time to read parameters        0.076 (sec)

 *---------------------------------- K-MESH ----------------------------------*
 +----------------------------------------------------------------------------+
 |                    Distance to Nearest-Neighbour Shells                    |
 |                    ------------------------------------                    |
 |          Shell             Distance (Ang^-1)          Multiplicity         |
 |          -----             -----------------          ------------         |
 |             1                   0.272070                      8            |
 |             2                   0.314159                      6            |
 |             3                   0.444288                     12            |
 |             4                   0.520974                     24            |
 |             5                   0.544140                      8            |
 |             6                   0.628319                      6            |
 |             7                   0.684694                     24            |
 |             8                   0.702481                     24            |
 |             9                   0.769530                     24            |
 |            10                   0.816210                     32            |
 |            11                   0.888577                     12            |
 |            12                   0.929296                     48            |
 |            13                   0.942478                     30            |
 |            14                   0.993459                     24            |
 |            15                   1.030040                     24            |
 |            16                   1.041948                     24            |
 |            17                   1.088280                      8            |
 |            18                   1.121773                     48            |
 |            19                   1.132717                     24            |
 |            20                   1.175476                     48            |
 |            21                   1.206552                     72            |
 |            22                   1.256637                      6            |
 |            23                   1.285752                     24            |
 |            24                   1.295312                     48            |
 |            25                   1.332865                     36            |
 |            26                   1.360350                     56            |
 |            27                   1.369388                     24            |
 |            28                   1.404963                     24            |
 |            29                   1.431064                     72            |
 |            30                   1.439659                     48            |
 |            31                   1.473538                     24            |
 |            32                   1.498444                     48            |
 |            33                   1.539060                     24            |
 |            34                   1.562923                     72            |
 |            35                   1.570796                     30            |
 |            36                   1.601904                     72            |
 +----------------------------------------------------------------------------+
 | The b-vectors are chosen automatically                                     |
 | The following shells are used:   1                                         |
 +----------------------------------------------------------------------------+
 |                        Shell   # Nearest-Neighbours                        |
 |                        -----   --------------------                        |
 |                          1               8                                 |
 +----------------------------------------------------------------------------+
 | Completeness relation is fully satisfied [Eq. (B1), PRB 56, 12847 (1997)]  |
 +----------------------------------------------------------------------------+
 |                  b_k Vectors (Ang^-1) and Weights (Ang^2)                  |
 |                  ----------------------------------------                  |
 |            No.         b_k(x)      b_k(y)      b_k(z)        w_b           |
 |            ---        --------------------------------     --------        |
 |             1        -0.157080    0.157080    0.157080     5.066059        |
 |             2         0.157080   -0.157080   -0.157080     5.066059        |
 |             3         0.157080   -0.157080    0.157080     5.066059        |
 |             4        -0.157080    0.157080   -0.157080     5.066059        |
 |             5         0.157080    0.157080   -0.157080     5.066059        |
 |             6         0.157080    0.157080    0.157080     5.066059        |
 |             7        -0.157080   -0.157080    0.157080     5.066059        |
 |             8        -0.157080   -0.157080   -0.157080     5.066059        |
 +----------------------------------------------------------------------------+
 |                           b_k Directions (Ang^-1)                          |
 |                           -----------------------                          |
 |            No.           x           y           z                         |
 |            ---        --------------------------------                     |
 |             1        -0.157080    0.157080    0.157080                     |
 |             2         0.157080   -0.157080    0.157080                     |
 |             3         0.157080    0.157080   -0.157080                     |
 |             4         0.157080    0.157080    0.157080                     |
 +----------------------------------------------------------------------------+
  
 Time to get kmesh              1.361 (sec)
 *============================================================================*
 |                              MEMORY ESTIMATE                               |
 |         Maximum RAM allocated during each phase of the calculation         |
 *============================================================================*
 |                            Wannierise:            1.13 Mb                  |
 |                          plot_wannier:            1.13 Mb                  |
 *----------------------------------------------------------------------------*
  
 Reading restart information from file wannier90.chk :
 written on 26Jul2025 at 01:35:11 ... done

 Restarting Wannier90 from plotting routines ...

 *---------------------------------------------------------------------------*
 |                               PLOTTING                                    |
 *---------------------------------------------------------------------------*

 !!!! Kpoint grid does not include Gamma.  Interpolation may be incorrect. !!!!

 Calculating interpolated band-structure

 Time to calculate interpolated band structure       0.106 (sec)

 Time for plotting              0.264 (sec)
 Total Execution Time           1.701 (sec)

 *===========================================================================*
 |                             TIMING INFORMATION                            |
 *===========================================================================*
 |    Tag                                                Ncalls      Time (s)|
 |---------------------------------------------------------------------------|
 |kmesh: get                                        :         1         1.361|
 |plot: main                                        :         1         0.264|
 *---------------------------------------------------------------------------*

 All done: wannier90 exiting
