 written on 13Jul2025 at 12:37:32 
          16
         267
    4    2    2    2    2    2    2    2    4    2    4    1    1    2    2
    1    1    1    2    1    1    1    2    1    1    2    2    1    1    2
    1    2    4    2    2    2    1    1    1    4    1    1    1    1    1
    2    1    1    1    1    1    2    1    1    1    1    1    2    1    1
    1    1    2    2    1    1    1    2    2    1    2    4    2    2    2
    1    1    1    2    1    1    1    1    1    1    1    1    1    1    1
    1    1    1    1    1    1    2    1    1    1    1    1    2    2    1
    1    1    1    2    1    1    2    2    2    2    1    1    2    2    1
    1    1    1    1    1    1    1    1    1    1    2    1    1    1    1
    1    2    1    1    1    1    1    1    1    1    1    1    1    2    2
    1    1    2    2    2    2    1    1    2    1    1    1    1    2    2
    1    1    1    1    1    2    1    1    1    1    1    1    1    1    1
    1    1    1    1    1    1    1    1    2    1    1    1    2    2    2
    4    2    1    2    2    1    1    1    2    2    1    1    1    1    2
    1    1    1    1    1    2    1    1    1    1    1    2    1    1    1
    1    1    4    1    1    1    2    2    2    4    2    1    2    1    1
    2    2    1    1    2    1    1    1    2    1    1    1    2    2    1
    1    4    2    4    2    2    2    2    2    2    2    4
   -4   -4   -6    1    1   -0.001684   -0.000000
   -4   -4   -6    2    1    0.000000    0.000000
   -4   -4   -6    3    1   -0.000000    0.000000
   -4   -4   -6    4    1    0.004368   -0.000000
   -4   -4   -6    5    1   -0.000000    0.000000
   -4   -4   -6    6    1    0.001199   -0.000000
   -4   -4   -6    7    1   -0.000000    0.000000
   -4   -4   -6    8    1    0.003189   -0.000000
   -4   -4   -6    9    1    0.002885   -0.000000
   -4   -4   -6   10    1   -0.000000    0.000000
   -4   -4   -6   11    1   -0.003096   -0.000000
   -4   -4   -6   12    1    0.000000    0.000000
   -4   -4   -6   13    1    0.000000   -0.000000
   -4   -4   -6   14    1   -0.001837    0.000000
   -4   -4   -6   15    1   -0.002600    0.000000
   -4   -4   -6   16    1    0.000000    0.000000
   -4   -4   -6    1    2   -0.000000   -0.000000
   -4   -4   -6    2    2    0.003732    0.000000
   -4   -4   -6    3    2   -0.000000    0.000000
   -4   -4   -6    4    2    0.000000   -0.000000
   -4   -4   -6    5    2    0.000000   -0.000000
   -4   -4   -6    6    2   -0.000000    0.000000
   -4   -4   -6    7    2    0.001481   -0.000000
   -4   -4   -6    8    2   -0.000000    0.000000
   -4   -4   -6    9    2    0.000000   -0.000000
   -4   -4   -6   10    2    0.000473    0.000000
   -4   -4   -6   11    2   -0.000000    0.000000
   -4   -4   -6   12    2   -0.002026    0.000000
   -4   -4   -6   13    2   -0.000000   -0.000000
   -4   -4   -6   14    2   -0.012572    0.000000
   -4   -4   -6   15    2    0.003149    0.000000
   -4   -4   -6   16    2   -0.000000   -0.000000
   -4   -4   -6    1    3    0.000000   -0.000000
   -4   -4   -6    2    3   -0.000000   -0.000000
   -4   -4   -6    3    3   -0.006966    0.000000
   -4   -4   -6    4    3    0.000000    0.000000
   -4   -4   -6    5    3   -0.000000    0.000000
   -4   -4   -6    6    3   -0.003562    0.000000
   -4   -4   -6    7    3    0.000000    0.000000
   -4   -4   -6    8    3   -0.005568    0.000000
   -4   -4   -6    9    3    0.008442   -0.000000
   -4   -4   -6   10    3    0.000000    0.000000
   -4   -4   -6   11    3   -0.000000   -0.000000
   -4   -4   -6   12    3    0.000000    0.000000
   -4   -4   -6   13    3   -0.009264    0.000000
   -4   -4   -6   14    3    0.000000    0.000000
   -4   -4   -6   15    3    0.000000   -0.000000
   -4   -4   -6   16    3    0.008917    0.000000
   -4   -4   -6    1    4    0.002127    0.000000
   -4   -4   -6    2    4   -0.000000    0.000000
   -4   -4   -6    3    4    0.000000   -0.000000
   -4   -4   -6    4    4    0.000079   -0.000000
   -4   -4   -6    5    4    0.000000   -0.000000
   -4   -4   -6    6    4    0.002025   -0.000000
   -4   -4   -6    7    4    0.000000    0.000000
   -4   -4   -6    8    4    0.005184   -0.000000
   -4   -4   -6    9    4    0.002880    0.000000
   -4   -4   -6   10    4    0.000000   -0.000000
   -4   -4   -6   11    4   -0.002361   -0.000000
   -4   -4   -6   12    4    0.000000   -0.000000
   -4   -4   -6   13    4    0.000000    0.000000
   -4   -4   -6   14    4    0.002432   -0.000000
   -4   -4   -6   15    4    0.007428   -0.000000
   -4   -4   -6   16    4   -0.000000   -0.000000
   -4   -4   -6    1    5   -0.000000   -0.000000
   -4   -4   -6    2    5   -0.000000    0.000000
   -4   -4   -6    3    5    0.000000   -0.000000
   -4   -4   -6    4    5   -0.000000    0.000000
   -4   -4   -6    5    5   -0.005556   -0.000000
   -4   -4   -6    6    5    0.000000    0.000000
   -4   -4   -6    7    5    0.005538    0.000000
   -4   -4   -6    8    5   -0.000000   -0.000000
   -4   -4   -6    9    5    0.000000   -0.000000
   -4   -4   -6   10    5    0.004407    0.000000
   -4   -4   -6   11    5    0.000000   -0.000000
   -4   -4   -6   12    5    0.000000    0.000000
   -4   -4   -6   13    5   -0.000000   -0.000000
   -4   -4   -6   14    5   -0.000000   -0.000000
   -4   -4   -6   15    5   -0.000000   -0.000000
   -4   -4   -6   16    5   -0.009412    0.000000
   -4   -4   -6    1    6    0.003349    0.000000
   -4   -4   -6    2    6   -0.000000   -0.000000
   -4   -4   -6    3    6    0.003742   -0.000000
   -4   -4   -6    4    6   -0.002364    0.000000
   -4   -4   -6    5    6   -0.000000   -0.000000
   -4   -4   -6    6    6   -0.001684   -0.000000
   -4   -4   -6    7    6   -0.000000    0.000000
   -4   -4   -6    8    6    0.000000   -0.000000
   -4   -4   -6    9    6   -0.004368    0.000000
   -4   -4   -6   10    6    0.000000   -0.000000
   -4   -4   -6   11    6   -0.001837    0.000000
   -4   -4   -6   12    6    0.000000    0.000000
   -4   -4   -6   13    6    0.002600   -0.000000
   -4   -4   -6   14    6    0.000477   -0.000000
   -4   -4   -6   15    6   -0.002180   -0.000000
   -4   -4   -6   16    6    0.001266    0.000000
   -4   -4   -6    1    7   -0.000000   -0.000000
   -4   -4   -6    2    7    0.001297    0.000000
   -4   -4   -6    3    7   -0.000000   -0.000000
   -4   -4   -6    4    7   -0.000000   -0.000000
   -4   -4   -6    5    7    0.001410   -0.000000
   -4   -4   -6    6    7    0.000000   -0.000000
   -4   -4   -6    7    7   -0.006966    0.000000
   -4   -4   -6    8    7    0.000000    0.000000
   -4   -4   -6    9    7   -0.000000   -0.000000
   -4   -4   -6   10    7    0.000000    0.000000
   -4   -4   -6   11    7    0.000000    0.000000
   -4   -4   -6   12    7    0.008917    0.000000
   -4   -4   -6   13    7   -0.000000    0.000000
   -4   -4   -6   14    7   -0.000062   -0.000000
   -4   -4   -6   15    7    0.003104   -0.000000
   -4   -4   -6   16    7   -0.000184   -0.000000
   -4   -4   -6    1    8    0.001503    0.000000
   -4   -4   -6    2    8    0.000000   -0.000000
   -4   -4   -6    3    8   -0.000424   -0.000000
   -4   -4   -6    4    8   -0.002593    0.000000
   -4   -4   -6    5    8    0.000000    0.000000
   -4   -4   -6    6    8   -0.000000    0.000000
   -4   -4   -6    7    8   -0.000000   -0.000000
   -4   -4   -6    8    8    0.003732   -0.000000
   -4   -4   -6    9    8    0.000000   -0.000000
   -4   -4   -6   10    8   -0.000000    0.000000
   -4   -4   -6   11    8    0.012572   -0.000000
   -4   -4   -6   12    8   -0.000000    0.000000
   -4   -4   -6   13    8    0.003149    0.000000
   -4   -4   -6   14    8    0.002816    0.000000
   -4   -4   -6   15    8    0.001446   -0.000000
   -4   -4   -6   16    8   -0.001672   -0.000000
   -4   -4   -6    1    9    0.001129    0.000000
   -4   -4   -6    2    9    0.000000    0.000000
   -4   -4   -6    3    9   -0.000981    0.000000
   -4   -4   -6    4    9   -0.000799   -0.000000
   -4   -4   -6    5    9   -0.000000    0.000000
   -4   -4   -6    6    9   -0.002127   -0.000000
   -4   -4   -6    7    9   -0.000000    0.000000
   -4   -4   -6    8    9   -0.000000    0.000000
   -4   -4   -6    9    9    0.000079    0.000000
   -4   -4   -6   10    9    0.000000   -0.000000
   -4   -4   -6   11    9   -0.002432    0.000000
   -4   -4   -6   12    9    0.000000    0.000000
   -4   -4   -6   13    9    0.007428   -0.000000
   -4   -4   -6   14    9    0.000106    0.000000
   -4   -4   -6   15    9    0.001500   -0.000000
   -4   -4   -6   16    9    0.000870    0.000000
   -4   -4   -6    1   10    0.000000   -0.000000
   -4   -4   -6    2   10   -0.000669   -0.000000
   -4   -4   -6    3   10   -0.000000   -0.000000
   -4   -4   -6    4   10   -0.000000    0.000000
   -4   -4   -6    5   10    0.002210   -0.000000
   -4   -4   -6    6   10    0.000000    0.000000
   -4   -4   -6    7   10    0.000000   -0.000000
   -4   -4   -6    8   10    0.000000   -0.000000
   -4   -4   -6    9   10   -0.000000    0.000000
   -4   -4   -6   10   10   -0.005556    0.000000
   -4   -4   -6   11   10   -0.000000    0.000000
   -4   -4   -6   12   10    0.009412   -0.000000
   -4   -4   -6   13   10   -0.000000   -0.000000
   -4   -4   -6   14   10   -0.002447    0.000000
   -4   -4   -6   15   10   -0.003237   -0.000000
   -4   -4   -6   16   10    0.003056    0.000000
   -4   -4   -6    1   11    0.004165    0.000000
   -4   -4   -6    2   11   -0.000000   -0.000000
   -4   -4   -6    3   11    0.000000    0.000000
   -4   -4   -6    4   11   -0.004214    0.000000
   -4   -4   -6    5   11   -0.000000    0.000000
   -4   -4   -6    6   11    0.000146   -0.000000
   -4   -4   -6    7   11   -0.000000   -0.000000
   -4   -4   -6    8   11   -0.004557    0.000000
   -4   -4   -6    9   11    0.001023   -0.000000
   -4   -4   -6   10   11   -0.000000   -0.000000
   -4   -4   -6   11   11   -0.001806   -0.000000
   -4   -4   -6   12   11    0.000000   -0.000000
   -4   -4   -6   13   11    0.000000    0.000000
   -4   -4   -6   14   11    0.000337    0.000000
   -4   -4   -6   15   11   -0.002852    0.000000
   -4   -4   -6   16   11   -0.000000   -0.000000
   -4   -4   -6    1   12   -0.000000   -0.000000
   -4   -4   -6    2   12   -0.000494   -0.000000
   -4   -4   -6    3   12   -0.000000   -0.000000
   -4   -4   -6    4   12   -0.000000    0.000000
   -4   -4   -6    5   12   -0.000000   -0.000000
   -4   -4   -6    6   12   -0.000000   -0.000000
   -4   -4   -6    7   12   -0.000964   -0.000000
   -4   -4   -6    8   12   -0.000000   -0.000000
   -4   -4   -6    9   12   -0.000000   -0.000000
   -4   -4   -6   10   12    0.001691    0.000000
   -4   -4   -6   11   12    0.000000    0.000000
   -4   -4   -6   12   12   -0.002057    0.000000
   -4   -4   -6   13   12   -0.000000    0.000000
   -4   -4   -6   14   12   -0.000653    0.000000
   -4   -4   -6   15   12   -0.001740    0.000000
   -4   -4   -6   16   12   -0.000000   -0.000000
   -4   -4   -6    1   13    0.000000    0.000000
   -4   -4   -6    2   13    0.000000    0.000000
   -4   -4   -6    3   13    0.000920   -0.000000
   -4   -4   -6    4   13   -0.000000   -0.000000
   -4   -4   -6    5   13    0.000000    0.000000
   -4   -4   -6    6   13   -0.000374    0.000000
   -4   -4   -6    7   13   -0.000000   -0.000000
   -4   -4   -6    8   13   -0.000526   -0.000000
   -4   -4   -6    9   13    0.001097    0.000000
   -4   -4   -6   10   13   -0.000000    0.000000
   -4   -4   -6   11   13    0.000000   -0.000000
   -4   -4   -6   12   13    0.000000   -0.000000
   -4   -4   -6   13   13   -0.004196   -0.000000
   -4   -4   -6   14   13   -0.000000   -0.000000
   -4   -4   -6   15   13   -0.000000   -0.000000
   -4   -4   -6   16   13    0.000768    0.000000
   -4   -4   -6    1   14    0.000146   -0.000000
   -4   -4   -6    2   14    0.004557   -0.000000
   -4   -4   -6    3   14   -0.000000   -0.000000
   -4   -4   -6    4   14   -0.001023    0.000000
   -4   -4   -6    5   14    0.000000    0.000000
   -4   -4   -6    6   14    0.000150    0.000000
   -4   -4   -6    7   14    0.000775    0.000000
   -4   -4   -6    8   14   -0.000634   -0.000000
   -4   -4   -6    9   14    0.000405   -0.000000
   -4   -4   -6   10   14   -0.002139   -0.000000
   -4   -4   -6   11   14    0.001646   -0.000000
   -4   -4   -6   12   14   -0.001124   -0.000000
   -4   -4   -6   13   14   -0.000000    0.000000
   -4   -4   -6   14   14   -0.001806    0.000000
   -4   -4   -6   15   14    0.000000   -0.000000
   -4   -4   -6   16   14    0.000000    0.000000
   -4   -4   -6    1   15    0.000374   -0.000000
   -4   -4   -6    2   15   -0.000526   -0.000000
   -4   -4   -6    3   15    0.000000    0.000000
   -4   -4   -6    4   15    0.001097    0.000000
   -4   -4   -6    5   15   -0.000000    0.000000
   -4   -4   -6    6   15   -0.000412    0.000000
   -4   -4   -6    7   15   -0.000212    0.000000
   -4   -4   -6    8   15    0.001597    0.000000
   -4   -4   -6    9   15    0.000060    0.000000
   -4   -4   -6   10   15   -0.002010    0.000000
   -4   -4   -6   11   15   -0.000456   -0.000000
   -4   -4   -6   12   15    0.009452   -0.000000
   -4   -4   -6   13   15   -0.000000    0.000000
   -4   -4   -6   14   15   -0.000000    0.000000
   -4   -4   -6   15   15   -0.004196   -0.000000
   -4   -4   -6   16   15   -0.000000    0.000000
   -4   -4   -6    1   16   -0.000000   -0.000000
   -4   -4   -6    2   16    0.000000    0.000000
   -4   -4   -6    3   16   -0.000964   -0.000000
   -4   -4   -6    4   16    0.000000    0.000000
   -4   -4   -6    5   16   -0.001691   -0.000000
   -4   -4   -6    6   16    0.000699   -0.000000
   -4   -4   -6    7   16   -0.002061    0.000000
   -4   -4   -6    8   16    0.000580    0.000000
   -4   -4   -6    9   16    0.000288   -0.000000
   -4   -4   -6   10   16    0.002346   -0.000000
   -4   -4   -6   11   16   -0.000000    0.000000
   -4   -4   -6   12   16   -0.000000    0.000000
   -4   -4   -6   13   16    0.001750   -0.000000
   -4   -4   -6   14   16   -0.000000   -0.000000
   -4   -4   -6   15   16    0.000000   -0.000000
   -4   -4   -6   16   16   -0.002057   -0.000000
   -4   -3   -5    1    1    0.003870    0.000000
   -4   -3   -5    2    1   -0.000245   -0.000000
   -4   -3   -5    3    1   -0.000000    0.000000
   -4   -3   -5    4    1   -0.001727   -0.000000
   -4   -3   -5    5    1   -0.000000    0.000000
   -4   -3   -5    6    1    0.000292    0.000000
   -4   -3   -5    7    1   -0.001044   -0.000000
   -4   -3   -5    8    1    0.000239   -0.000000
   -4   -3   -5    9    1    0.001463   -0.000000
   -4   -3   -5   10    1   -0.000492    0.000000
   -4   -3   -5   11    1   -0.000962    0.000000
   -4   -3   -5   12    1    0.000500    0.000000
   -4   -3   -5   13    1    0.000000   -0.000000
   -4   -3   -5   14    1   -0.001012    0.000000
   -4   -3   -5   15    1    0.000937    0.000000
   -4   -3   -5   16    1   -0.000000    0.000000
   -4   -3   -5    1    2    0.003924   -0.000000
   -4   -3   -5    2    2    0.000375    0.000000
   -4   -3   -5    3    2   -0.000000   -0.000000
   -4   -3   -5    4    2   -0.002099    0.000000
   -4   -3   -5    5    2    0.000000    0.000000
   -4   -3   -5    6    2   -0.002097    0.000000
   -4   -3   -5    7    2   -0.001600    0.000000
   -4   -3   -5    8    2    0.001268    0.000000
   -4   -3   -5    9    2   -0.000960   -0.000000
   -4   -3   -5   10    2    0.006794   -0.000000
   -4   -3   -5   11    2   -0.002868    0.000000
   -4   -3   -5   12    2   -0.008586   -0.000000
   -4   -3   -5   13    2   -0.000000   -0.000000
   -4   -3   -5   14    2    0.010911   -0.000000
   -4   -3   -5   15    2    0.001167   -0.000000
   -4   -3   -5   16    2   -0.000000   -0.000000
   -4   -3   -5    1    3    0.000000    0.000000
   -4   -3   -5    2    3    0.000000    0.000000
   -4   -3   -5    3    3   -0.001715    0.000000
   -4   -3   -5    4    3   -0.000000    0.000000
   -4   -3   -5    5    3    0.001873   -0.000000
   -4   -3   -5    6    3    0.006305   -0.000000
   -4   -3   -5    7    3   -0.002464    0.000000
   -4   -3   -5    8    3   -0.000797    0.000000
   -4   -3   -5    9    3    0.005516   -0.000000
   -4   -3   -5   10    3    0.001453    0.000000
   -4   -3   -5   11    3   -0.000000    0.000000
   -4   -3   -5   12    3   -0.000000   -0.000000
   -4   -3   -5   13    3   -0.004948    0.000000
   -4   -3   -5   14    3   -0.000000    0.000000
   -4   -3   -5   15    3    0.000000    0.000000
   -4   -3   -5   16    3    0.002012   -0.000000
   -4   -3   -5    1    4   -0.001499    0.000000
   -4   -3   -5    2    4    0.001829    0.000000
   -4   -3   -5    3    4   -0.000000    0.000000
   -4   -3   -5    4    4    0.002696   -0.000000
   -4   -3   -5    5    4   -0.000000    0.000000
   -4   -3   -5    6    4   -0.000496   -0.000000
   -4   -3   -5    7    4   -0.002273    0.000000
   -4   -3   -5    8    4    0.001624   -0.000000
   -4   -3   -5    9    4   -0.000419   -0.000000
   -4   -3   -5   10    4   -0.001528    0.000000
   -4   -3   -5   11    4    0.002310   -0.000000
   -4   -3   -5   12    4   -0.002343    0.000000
   -4   -3   -5   13    4   -0.000000    0.000000
   -4   -3   -5   14    4   -0.004598   -0.000000
   -4   -3   -5   15    4   -0.002285    0.000000
   -4   -3   -5   16    4    0.000000   -0.000000
   -4   -3   -5    1    5   -0.000000   -0.000000
   -4   -3   -5    2    5    0.000000    0.000000
   -4   -3   -5    3    5   -0.000340   -0.000000
   -4   -3   -5    4    5   -0.000000   -0.000000
   -4   -3   -5    5    5   -0.000873    0.000000
   -4   -3   -5    6    5    0.001639    0.000000
   -4   -3   -5    7    5    0.002431   -0.000000
   -4   -3   -5    8    5   -0.001223    0.000000
   -4   -3   -5    9    5    0.001847   -0.000000
   -4   -3   -5   10    5   -0.004890    0.000000
   -4   -3   -5   11    5   -0.000000   -0.000000
   -4   -3   -5   12    5    0.000000   -0.000000
   -4   -3   -5   13    5    0.006593   -0.000000
   -4   -3   -5   14    5    0.000000   -0.000000
   -4   -3   -5   15    5    0.000000    0.000000
   -4   -3   -5   16    5    0.016679   -0.000000
   -4   -3   -5    1    6    0.000976   -0.000000
   -4   -3   -5    2    6    0.000108   -0.000000
   -4   -3   -5    3    6    0.000888    0.000000
   -4   -3   -5    4    6   -0.000083    0.000000
   -4   -3   -5    5    6   -0.000473    0.000000
   -4   -3   -5    6    6   -0.004969   -0.000000
   -4   -3   -5    7    6    0.002304   -0.000000
   -4   -3   -5    8    6    0.000000   -0.000000
   -4   -3   -5    9    6   -0.003494    0.000000
   -4   -3   -5   10    6    0.000000   -0.000000
   -4   -3   -5   11    6    0.002086   -0.000000
   -4   -3   -5   12    6   -0.001301    0.000000
   -4   -3   -5   13    6    0.003367   -0.000000
   -4   -3   -5   14    6   -0.000357   -0.000000
   -4   -3   -5   15    6   -0.003193    0.000000
   -4   -3   -5   16    6   -0.002587   -0.000000
   -4   -3   -5    1    7    0.000570   -0.000000
   -4   -3   -5    2    7    0.001629   -0.000000
   -4   -3   -5    3    7   -0.002490    0.000000
   -4   -3   -5    4    7    0.002373   -0.000000
   -4   -3   -5    5    7    0.000028    0.000000
   -4   -3   -5    6    7   -0.001392    0.000000
   -4   -3   -5    7    7    0.005107    0.000000
   -4   -3   -5    8    7    0.000000    0.000000
   -4   -3   -5    9    7   -0.003228   -0.000000
   -4   -3   -5   10    7    0.000000   -0.000000
   -4   -3   -5   11    7   -0.006195    0.000000
   -4   -3   -5   12    7   -0.001877   -0.000000
   -4   -3   -5   13    7   -0.003567    0.000000
   -4   -3   -5   14    7    0.002867   -0.000000
   -4   -3   -5   15    7   -0.003220    0.000000
   -4   -3   -5   16    7    0.001279   -0.000000
   -4   -3   -5    1    8   -0.001003    0.000000
   -4   -3   -5    2    8   -0.000354    0.000000
   -4   -3   -5    3    8    0.000501   -0.000000
   -4   -3   -5    4    8    0.000401    0.000000
   -4   -3   -5    5    8    0.000991    0.000000
   -4   -3   -5    6    8    0.000000   -0.000000
   -4   -3   -5    7    8   -0.000000   -0.000000
   -4   -3   -5    8    8   -0.001709    0.000000
   -4   -3   -5    9    8   -0.000000    0.000000
   -4   -3   -5   10    8    0.000131   -0.000000
   -4   -3   -5   11    8   -0.001727   -0.000000
   -4   -3   -5   12    8    0.000386    0.000000
   -4   -3   -5   13    8   -0.006008    0.000000
   -4   -3   -5   14    8    0.000704   -0.000000
   -4   -3   -5   15    8    0.003054   -0.000000
   -4   -3   -5   16    8   -0.000366    0.000000
   -4   -3   -5    1    9    0.000478    0.000000
   -4   -3   -5    2    9    0.000099   -0.000000
   -4   -3   -5    3    9    0.001548    0.000000
   -4   -3   -5    4    9    0.000347    0.000000
   -4   -3   -5    5    9   -0.001271    0.000000
   -4   -3   -5    6    9   -0.002012   -0.000000
   -4   -3   -5    7    9    0.002124   -0.000000
   -4   -3   -5    8    9   -0.000000    0.000000
   -4   -3   -5    9    9   -0.003509   -0.000000
   -4   -3   -5   10    9    0.000000    0.000000
   -4   -3   -5   11    9    0.001521   -0.000000
   -4   -3   -5   12    9    0.003098    0.000000
   -4   -3   -5   13    9    0.002693   -0.000000
   -4   -3   -5   14    9    0.002363   -0.000000
   -4   -3   -5   15    9    0.000425    0.000000
   -4   -3   -5   16    9    0.000053   -0.000000
   -4   -3   -5    1   10   -0.001774    0.000000
   -4   -3   -5    2   10    0.000390    0.000000
   -4   -3   -5    3   10   -0.001079   -0.000000
   -4   -3   -5    4   10    0.000565   -0.000000
   -4   -3   -5    5   10   -0.000131   -0.000000
   -4   -3   -5    6   10   -0.000000    0.000000
   -4   -3   -5    7   10   -0.000000   -0.000000
   -4   -3   -5    8   10    0.001291   -0.000000
   -4   -3   -5    9   10    0.000000   -0.000000
   -4   -3   -5   10   10    0.001975   -0.000000
   -4   -3   -5   11   10    0.002328    0.000000
   -4   -3   -5   12   10    0.009133   -0.000000
   -4   -3   -5   13   10   -0.000947   -0.000000
   -4   -3   -5   14   10    0.003806    0.000000
   -4   -3   -5   15   10    0.000939    0.000000
   -4   -3   -5   16   10   -0.002335   -0.000000
   -4   -3   -5    1   11    0.001243   -0.000000
   -4   -3   -5    2   11   -0.000835    0.000000
   -4   -3   -5    3   11    0.000000    0.000000
   -4   -3   -5    4   11    0.000046    0.000000
   -4   -3   -5    5   11    0.000000    0.000000
   -4   -3   -5    6   11    0.001194    0.000000
   -4   -3   -5    7   11   -0.002364   -0.000000
   -4   -3   -5    8   11    0.000036    0.000000
   -4   -3   -5    9   11    0.000073    0.000000
   -4   -3   -5   10   11   -0.000483    0.000000
   -4   -3   -5   11   11   -0.000032   -0.000000
   -4   -3   -5   12   11   -0.000373    0.000000
   -4   -3   -5   13   11   -0.000000    0.000000
   -4   -3   -5   14   11    0.001018   -0.000000
   -4   -3   -5   15   11   -0.000153    0.000000
   -4   -3   -5   16   11   -0.000000   -0.000000
   -4   -3   -5    1   12    0.002186    0.000000
   -4   -3   -5    2   12   -0.000507    0.000000
   -4   -3   -5    3   12    0.000000    0.000000
   -4   -3   -5    4   12   -0.001817   -0.000000
   -4   -3   -5    5   12   -0.000000   -0.000000
   -4   -3   -5    6   12    0.000685    0.000000
   -4   -3   -5    7   12   -0.000175    0.000000
   -4   -3   -5    8   12    0.002458    0.000000
   -4   -3   -5    9   12    0.001281    0.000000
   -4   -3   -5   10   12    0.000271    0.000000
   -4   -3   -5   11   12   -0.003187    0.000000
   -4   -3   -5   12   12   -0.000071   -0.000000
   -4   -3   -5   13   12    0.000000    0.000000
   -4   -3   -5   14   12    0.000697    0.000000
   -4   -3   -5   15   12    0.004388    0.000000
   -4   -3   -5   16   12   -0.000000   -0.000000
   -4   -3   -5    1   13   -0.000000   -0.000000
   -4   -3   -5    2   13    0.000000    0.000000
   -4   -3   -5    3   13    0.001089   -0.000000
   -4   -3   -5    4   13    0.000000    0.000000
   -4   -3   -5    5   13   -0.002435   -0.000000
   -4   -3   -5    6   13    0.002104   -0.000000
   -4   -3   -5    7   13   -0.000850    0.000000
   -4   -3   -5    8   13   -0.001141   -0.000000
   -4   -3   -5    9   13    0.003409    0.000000
   -4   -3   -5   10   13   -0.000241   -0.000000
   -4   -3   -5   11   13   -0.000000    0.000000
   -4   -3   -5   12   13   -0.000000   -0.000000
   -4   -3   -5   13   13   -0.000546    0.000000
   -4   -3   -5   14   13    0.000000   -0.000000
   -4   -3   -5   15   13    0.000000   -0.000000
   -4   -3   -5   16   13    0.001135   -0.000000
   -4   -3   -5    1   14    0.000146   -0.000000
   -4   -3   -5    2   14   -0.004557    0.000000
   -4   -3   -5    3   14    0.000000    0.000000
   -4   -3   -5    4   14   -0.001023    0.000000
   -4   -3   -5    5   14    0.000000    0.000000
   -4   -3   -5    6   14    0.000150    0.000000
   -4   -3   -5    7   14   -0.000775    0.000000
   -4   -3   -5    8   14   -0.000634    0.000000
   -4   -3   -5    9   14    0.000405   -0.000000
   -4   -3   -5   10   14    0.002139    0.000000
   -4   -3   -5   11   14    0.001646   -0.000000
   -4   -3   -5   12   14    0.001124    0.000000
   -4   -3   -5   13   14    0.000000   -0.000000
   -4   -3   -5   14   14   -0.000092    0.000000
   -4   -3   -5   15   14   -0.003932    0.000000
   -4   -3   -5   16   14   -0.000000   -0.000000
   -4   -3   -5    1   15   -0.000374    0.000000
   -4   -3   -5    2   15   -0.000526   -0.000000
   -4   -3   -5    3   15    0.000000    0.000000
   -4   -3   -5    4   15   -0.001097   -0.000000
   -4   -3   -5    5   15    0.000000   -0.000000
   -4   -3   -5    6   15    0.000412   -0.000000
   -4   -3   -5    7   15   -0.000212    0.000000
   -4   -3   -5    8   15   -0.001597   -0.000000
   -4   -3   -5    9   15   -0.000060   -0.000000
   -4   -3   -5   10   15   -0.002010    0.000000
   -4   -3   -5   11   15    0.000456    0.000000
   -4   -3   -5   12   15    0.009452   -0.000000
   -4   -3   -5   13   15   -0.000000    0.000000
   -4   -3   -5   14   15   -0.000742    0.000000
   -4   -3   -5   15   15   -0.002370   -0.000000
   -4   -3   -5   16   15   -0.000000   -0.000000
   -4   -3   -5    1   16    0.000000    0.000000
   -4   -3   -5    2   16    0.000000    0.000000
   -4   -3   -5    3   16   -0.000964   -0.000000
   -4   -3   -5    4   16   -0.000000   -0.000000
   -4   -3   -5    5   16    0.001691    0.000000
   -4   -3   -5    6   16    0.000699    0.000000
   -4   -3   -5    7   16    0.002061   -0.000000
   -4   -3   -5    8   16    0.000580    0.000000
   -4   -3   -5    9   16    0.000288    0.000000
   -4   -3   -5   10   16   -0.002346    0.000000
   -4   -3   -5   11   16    0.000000   -0.000000
   -4   -3   -5   12   16   -0.000000    0.000000
   -4   -3   -5   13   16    0.001750   -0.000000
   -4   -3   -5   14   16   -0.000000   -0.000000
   -4   -3   -5   15   16    0.000000    0.000000
   -4   -3   -5   16   16    0.004695    0.000000
   -4   -2   -4    1    1    0.003649   -0.000000
   -4   -2   -4    2    1    0.002150   -0.000000
   -4   -2   -4    3    1    0.000000    0.000000
   -4   -2   -4    4    1   -0.001623    0.000000
   -4   -2   -4    5    1   -0.000000    0.000000
   -4   -2   -4    6    1   -0.000447    0.000000
   -4   -2   -4    7    1   -0.000993    0.000000
   -4   -2   -4    8    1    0.000718   -0.000000
   -4   -2   -4    9    1    0.001491   -0.000000
   -4   -2   -4   10    1    0.005726    0.000000
   -4   -2   -4   11    1    0.002947   -0.000000
   -4   -2   -4   12    1    0.004187   -0.000000
   -4   -2   -4   13    1    0.000000   -0.000000
   -4   -2   -4   14    1    0.002895   -0.000000
   -4   -2   -4   15    1    0.008578   -0.000000
   -4   -2   -4   16    1   -0.000000    0.000000
   -4   -2   -4    1    2   -0.003552   -0.000000
   -4   -2   -4    2    2   -0.000176    0.000000
   -4   -2   -4    3    2   -0.000000    0.000000
   -4   -2   -4    4    2    0.000492   -0.000000
   -4   -2   -4    5    2   -0.000000    0.000000
   -4   -2   -4    6    2    0.001311    0.000000
   -4   -2   -4    7    2   -0.002117    0.000000
   -4   -2   -4    8    2    0.003345    0.000000
   -4   -2   -4    9    2   -0.001584   -0.000000
   -4   -2   -4   10    2   -0.009042    0.000000
   -4   -2   -4   11    2   -0.005865    0.000000
   -4   -2   -4   12    2    0.005674   -0.000000
   -4   -2   -4   13    2   -0.000000   -0.000000
   -4   -2   -4   14    2   -0.007419   -0.000000
   -4   -2   -4   15    2   -0.005781    0.000000
   -4   -2   -4   16    2   -0.000000   -0.000000
   -4   -2   -4    1    3   -0.000000    0.000000
   -4   -2   -4    2    3    0.000000   -0.000000
   -4   -2   -4    3    3    0.002867   -0.000000
   -4   -2   -4    4    3    0.000000    0.000000
   -4   -2   -4    5    3    0.011560   -0.000000
   -4   -2   -4    6    3    0.002336   -0.000000
   -4   -2   -4    7    3   -0.002287    0.000000
   -4   -2   -4    8    3   -0.002886    0.000000
   -4   -2   -4    9    3    0.001443    0.000000
   -4   -2   -4   10    3   -0.007346   -0.000000
   -4   -2   -4   11    3   -0.000000    0.000000
   -4   -2   -4   12    3   -0.000000    0.000000
   -4   -2   -4   13    3   -0.008532   -0.000000
   -4   -2   -4   14    3   -0.000000    0.000000
   -4   -2   -4   15    3   -0.000000    0.000000
   -4   -2   -4   16    3    0.006442    0.000000
   -4   -2   -4    1    4    0.000130   -0.000000
   -4   -2   -4    2    4   -0.002487   -0.000000
   -4   -2   -4    3    4   -0.000000    0.000000
   -4   -2   -4    4    4    0.000854    0.000000
   -4   -2   -4    5    4    0.000000   -0.000000
   -4   -2   -4    6    4   -0.000950    0.000000
   -4   -2   -4    7    4    0.005090    0.000000
   -4   -2   -4    8    4    0.000136   -0.000000
   -4   -2   -4    9    4   -0.002362    0.000000
   -4   -2   -4   10    4    0.003614   -0.000000
   -4   -2   -4   11    4   -0.001760   -0.000000
   -4   -2   -4   12    4    0.001744   -0.000000
   -4   -2   -4   13    4    0.000000    0.000000
   -4   -2   -4   14    4    0.004899    0.000000
   -4   -2   -4   15    4   -0.004921   -0.000000
   -4   -2   -4   16    4    0.000000   -0.000000
   -4   -2   -4    1    5   -0.000000   -0.000000
   -4   -2   -4    2    5    0.000000    0.000000
   -4   -2   -4    3    5    0.003364   -0.000000
   -4   -2   -4    4    5   -0.000000    0.000000
   -4   -2   -4    5    5    0.002633    0.000000
   -4   -2   -4    6    5   -0.003628   -0.000000
   -4   -2   -4    7    5   -0.005796   -0.000000
   -4   -2   -4    8    5    0.000911   -0.000000
   -4   -2   -4    9    5    0.000654   -0.000000
   -4   -2   -4   10    5    0.005621   -0.000000
   -4   -2   -4   11    5   -0.000000   -0.000000
   -4   -2   -4   12    5    0.000000   -0.000000
   -4   -2   -4   13    5   -0.003278   -0.000000
   -4   -2   -4   14    5   -0.000000   -0.000000
   -4   -2   -4   15    5    0.000000   -0.000000
   -4   -2   -4   16    5   -0.010528    0.000000
   -4   -2   -4    1    6   -0.000034   -0.000000
   -4   -2   -4    2    6    0.000599   -0.000000
   -4   -2   -4    3    6    0.000924   -0.000000
   -4   -2   -4    4    6   -0.000538   -0.000000
   -4   -2   -4    5    6   -0.000700   -0.000000
   -4   -2   -4    6    6   -0.002353    0.000000
   -4   -2   -4    7    6    0.000985    0.000000
   -4   -2   -4    8    6    0.000000   -0.000000
   -4   -2   -4    9    6   -0.001737   -0.000000
   -4   -2   -4   10    6    0.000000   -0.000000
   -4   -2   -4   11    6   -0.000646    0.000000
   -4   -2   -4   12    6    0.001416    0.000000
   -4   -2   -4   13    6    0.001607   -0.000000
   -4   -2   -4   14    6    0.000375    0.000000
   -4   -2   -4   15    6   -0.000643    0.000000
   -4   -2   -4   16    6    0.001540    0.000000
   -4   -2   -4    1    7    0.001995   -0.000000
   -4   -2   -4    2    7   -0.001926   -0.000000
   -4   -2   -4    3    7   -0.000003    0.000000
   -4   -2   -4    4    7   -0.001066   -0.000000
   -4   -2   -4    5    7   -0.001869    0.000000
   -4   -2   -4    6    7   -0.001214    0.000000
   -4   -2   -4    7    7    0.001489   -0.000000
   -4   -2   -4    8    7    0.000000    0.000000
   -4   -2   -4    9    7    0.003051    0.000000
   -4   -2   -4   10    7    0.000000   -0.000000
   -4   -2   -4   11    7    0.003236    0.000000
   -4   -2   -4   12    7    0.004288    0.000000
   -4   -2   -4   13    7   -0.000424    0.000000
   -4   -2   -4   14    7   -0.005703   -0.000000
   -4   -2   -4   15    7    0.000541    0.000000
   -4   -2   -4   16    7   -0.003331   -0.000000
   -4   -2   -4    1    8   -0.001398    0.000000
   -4   -2   -4    2    8   -0.000068   -0.000000
   -4   -2   -4    3    8   -0.000120   -0.000000
   -4   -2   -4    4    8   -0.000889   -0.000000
   -4   -2   -4    5    8   -0.001537   -0.000000
   -4   -2   -4    6    8    0.000000   -0.000000
   -4   -2   -4    7    8   -0.000000   -0.000000
   -4   -2   -4    8    8   -0.003731    0.000000
   -4   -2   -4    9    8    0.000000    0.000000
   -4   -2   -4   10    8    0.000370    0.000000
   -4   -2   -4   11    8    0.005648    0.000000
   -4   -2   -4   12    8   -0.003522    0.000000
   -4   -2   -4   13    8   -0.001345   -0.000000
   -4   -2   -4   14    8   -0.000268    0.000000
   -4   -2   -4   15    8   -0.004005    0.000000
   -4   -2   -4   16    8   -0.000999   -0.000000
   -4   -2   -4    1    9   -0.000313    0.000000
   -4   -2   -4    2    9    0.000217   -0.000000
   -4   -2   -4    3    9    0.000612   -0.000000
   -4   -2   -4    4    9   -0.000551   -0.000000
   -4   -2   -4    5    9   -0.002813   -0.000000
   -4   -2   -4    6    9   -0.000255    0.000000
   -4   -2   -4    7    9    0.002265    0.000000
   -4   -2   -4    8    9   -0.000000    0.000000
   -4   -2   -4    9    9   -0.001525   -0.000000
   -4   -2   -4   10    9    0.000000   -0.000000
   -4   -2   -4   11    9   -0.000079   -0.000000
   -4   -2   -4   12    9   -0.002962   -0.000000
   -4   -2   -4   13    9    0.001164    0.000000
   -4   -2   -4   14    9   -0.000126    0.000000
   -4   -2   -4   15    9   -0.000229    0.000000
   -4   -2   -4   16    9    0.002800    0.000000
   -4   -2   -4    1   10    0.000737   -0.000000
   -4   -2   -4    2   10   -0.001632   -0.000000
   -4   -2   -4    3   10    0.001180   -0.000000
   -4   -2   -4    4   10   -0.000517    0.000000
   -4   -2   -4    5   10   -0.000551    0.000000
   -4   -2   -4    6   10   -0.000000    0.000000
   -4   -2   -4    7   10    0.000000   -0.000000
   -4   -2   -4    8   10    0.000663   -0.000000
   -4   -2   -4    9   10    0.000000    0.000000
   -4   -2   -4   10   10   -0.000146   -0.000000
   -4   -2   -4   11   10    0.004360    0.000000
   -4   -2   -4   12   10   -0.004919    0.000000
   -4   -2   -4   13   10   -0.004815   -0.000000
   -4   -2   -4   14   10   -0.000349   -0.000000
   -4   -2   -4   15   10    0.000714   -0.000000
   -4   -2   -4   16   10    0.004965   -0.000000
   -4   -2   -4    1   11    0.000037    0.000000
   -4   -2   -4    2   11    0.000614   -0.000000
   -4   -2   -4    3   11   -0.000000    0.000000
   -4   -2   -4    4   11   -0.001298    0.000000
   -4   -2   -4    5   11    0.000000    0.000000
   -4   -2   -4    6   11   -0.000745   -0.000000
   -4   -2   -4    7   11    0.001382   -0.000000
   -4   -2   -4    8   11   -0.001454    0.000000
   -4   -2   -4    9   11   -0.000472    0.000000
   -4   -2   -4   10   11   -0.001097   -0.000000
   -4   -2   -4   11   11    0.001588   -0.000000
   -4   -2   -4   12   11    0.003835    0.000000
   -4   -2   -4   13   11    0.000000    0.000000
   -4   -2   -4   14   11   -0.000765   -0.000000
   -4   -2   -4   15   11   -0.002956    0.000000
   -4   -2   -4   16   11    0.000000   -0.000000
   -4   -2   -4    1   12   -0.002805   -0.000000
   -4   -2   -4    2   12    0.000498    0.000000
   -4   -2   -4    3   12    0.000000   -0.000000
   -4   -2   -4    4   12    0.001796   -0.000000
   -4   -2   -4    5   12    0.000000   -0.000000
   -4   -2   -4    6   12   -0.000498   -0.000000
   -4   -2   -4    7   12    0.002257   -0.000000
   -4   -2   -4    8   12   -0.001745   -0.000000
   -4   -2   -4    9   12   -0.001042   -0.000000
   -4   -2   -4   10   12   -0.001506   -0.000000
   -4   -2   -4   11   12    0.002475    0.000000
   -4   -2   -4   12   12    0.004459    0.000000
   -4   -2   -4   13   12   -0.000000    0.000000
   -4   -2   -4   14   12   -0.002987    0.000000
   -4   -2   -4   15   12   -0.002420   -0.000000
   -4   -2   -4   16   12   -0.000000   -0.000000
   -4   -2   -4    1   13    0.000000   -0.000000
   -4   -2   -4    2   13    0.000000    0.000000
   -4   -2   -4    3   13   -0.001850    0.000000
   -4   -2   -4    4   13   -0.000000    0.000000
   -4   -2   -4    5   13    0.003986    0.000000
   -4   -2   -4    6   13    0.001508    0.000000
   -4   -2   -4    7   13   -0.001687   -0.000000
   -4   -2   -4    8   13   -0.000447    0.000000
   -4   -2   -4    9   13    0.002692    0.000000
   -4   -2   -4   10   13    0.001400   -0.000000
   -4   -2   -4   11   13    0.000000    0.000000
   -4   -2   -4   12   13   -0.000000   -0.000000
   -4   -2   -4   13   13   -0.003883   -0.000000
   -4   -2   -4   14   13    0.000000   -0.000000
   -4   -2   -4   15   13    0.000000   -0.000000
   -4   -2   -4   16   13   -0.001718    0.000000
   -4   -2   -4    1   14    0.004217   -0.000000
   -4   -2   -4    2   14    0.002256   -0.000000
   -4   -2   -4    3   14   -0.000000    0.000000
   -4   -2   -4    4   14   -0.000749    0.000000
   -4   -2   -4    5   14    0.000000    0.000000
   -4   -2   -4    6   14    0.000527    0.000000
   -4   -2   -4    7   14   -0.001291   -0.000000
   -4   -2   -4    8   14    0.003565    0.000000
   -4   -2   -4    9   14    0.001938    0.000000
   -4   -2   -4   10   14   -0.000804    0.000000
   -4   -2   -4   11   14   -0.007116    0.000000
   -4   -2   -4   12   14    0.006476    0.000000
   -4   -2   -4   13   14    0.000000   -0.000000
   -4   -2   -4   14   14    0.001364   -0.000000
   -4   -2   -4   15   14    0.000536    0.000000
   -4   -2   -4   16   14    0.000000   -0.000000
   -4   -2   -4    1   15   -0.002205    0.000000
   -4   -2   -4    2   15    0.000514    0.000000
   -4   -2   -4    3   15   -0.000000   -0.000000
   -4   -2   -4    4   15    0.001165    0.000000
   -4   -2   -4    5   15    0.000000    0.000000
   -4   -2   -4    6   15    0.001517    0.000000
   -4   -2   -4    7   15   -0.002245   -0.000000
   -4   -2   -4    8   15    0.000107   -0.000000
   -4   -2   -4    9   15    0.001115    0.000000
   -4   -2   -4   10   15   -0.000199   -0.000000
   -4   -2   -4   11   15    0.003757    0.000000
   -4   -2   -4   12   15    0.000803   -0.000000
   -4   -2   -4   13   15   -0.000000    0.000000
   -4   -2   -4   14   15   -0.000861    0.000000
   -4   -2   -4   15   15    0.000814   -0.000000
   -4   -2   -4   16   15   -0.000000   -0.000000
   -4   -2   -4    1   16   -0.000000    0.000000
   -4   -2   -4    2   16    0.000000    0.000000
   -4   -2   -4    3   16   -0.000189    0.000000
   -4   -2   -4    4   16    0.000000   -0.000000
   -4   -2   -4    5   16   -0.000942   -0.000000
   -4   -2   -4    6   16   -0.000983   -0.000000
   -4   -2   -4    7   16   -0.001227   -0.000000
   -4   -2   -4    8   16    0.001817   -0.000000
   -4   -2   -4    9   16    0.003116    0.000000
   -4   -2   -4   10   16   -0.001189   -0.000000
   -4   -2   -4   11   16    0.000000   -0.000000
   -4   -2   -4   12   16    0.000000    0.000000
   -4   -2   -4   13   16    0.010882    0.000000
   -4   -2   -4   14   16    0.000000   -0.000000
   -4   -2   -4   15   16    0.000000    0.000000
   -4   -2   -4   16   16   -0.002463    0.000000
   -4   -2   -3    1    1   -0.000556   -0.000000
   -4   -2   -3    2    1    0.000307   -0.000000
   -4   -2   -3    3    1   -0.000880    0.000000
   -4   -2   -3    4    1   -0.000026    0.000000
   -4   -2   -3    5    1    0.001107    0.000000
   -4   -2   -3    6    1   -0.000695   -0.000000
   -4   -2   -3    7    1    0.002414    0.000000
   -4   -2   -3    8    1   -0.000228   -0.000000
   -4   -2   -3    9    1   -0.000166    0.000000
   -4   -2   -3   10    1   -0.001995   -0.000000
   -4   -2   -3   11    1    0.002402   -0.000000
   -4   -2   -3   12    1    0.001517    0.000000
   -4   -2   -3   13    1    0.002464    0.000000
   -4   -2   -3   14    1   -0.002201   -0.000000
   -4   -2   -3   15    1   -0.000000   -0.000000
   -4   -2   -3   16    1    0.000508   -0.000000
   -4   -2   -3    1    2    0.000803   -0.000000
   -4   -2   -3    2    2    0.000741   -0.000000
   -4   -2   -3    3    2   -0.002384   -0.000000
   -4   -2   -3    4    2   -0.001842    0.000000
   -4   -2   -3    5    2    0.000317    0.000000
   -4   -2   -3    6    2    0.001148    0.000000
   -4   -2   -3    7    2   -0.000793    0.000000
   -4   -2   -3    8    2   -0.001508    0.000000
   -4   -2   -3    9    2    0.000366    0.000000
   -4   -2   -3   10    2   -0.000724   -0.000000
   -4   -2   -3   11    2   -0.000068   -0.000000
   -4   -2   -3   12    2    0.000752    0.000000
   -4   -2   -3   13    2   -0.000065   -0.000000
   -4   -2   -3   14    2   -0.000000   -0.000000
   -4   -2   -3   15    2    0.001884    0.000000
   -4   -2   -3   16    2   -0.000000    0.000000
   -4   -2   -3    1    3    0.002240    0.000000
   -4   -2   -3    2    3    0.000749    0.000000
   -4   -2   -3    3    3    0.000070    0.000000
   -4   -2   -3    4    3   -0.001656   -0.000000
   -4   -2   -3    5    3    0.001229    0.000000
   -4   -2   -3    6    3   -0.001725   -0.000000
   -4   -2   -3    7    3   -0.001879   -0.000000
   -4   -2   -3    8    3    0.002179   -0.000000
   -4   -2   -3    9    3   -0.001950    0.000000
   -4   -2   -3   10    3    0.001579    0.000000
   -4   -2   -3   11    3   -0.005087   -0.000000
   -4   -2   -3   12    3   -0.009648   -0.000000
   -4   -2   -3   13    3   -0.004502   -0.000000
   -4   -2   -3   14    3    0.003928    0.000000
   -4   -2   -3   15    3    0.000000   -0.000000
   -4   -2   -3   16    3    0.002766   -0.000000
   -4   -2   -3    1    4   -0.000763   -0.000000
   -4   -2   -3    2    4   -0.001061   -0.000000
   -4   -2   -3    3    4   -0.001094   -0.000000
   -4   -2   -3    4    4    0.000123   -0.000000
   -4   -2   -3    5    4    0.000931    0.000000
   -4   -2   -3    6    4   -0.000898    0.000000
   -4   -2   -3    7    4    0.000105   -0.000000
   -4   -2   -3    8    4    0.001320    0.000000
   -4   -2   -3    9    4   -0.000922   -0.000000
   -4   -2   -3   10    4   -0.001313    0.000000
   -4   -2   -3   11    4   -0.002258    0.000000
   -4   -2   -3   12    4    0.000294   -0.000000
   -4   -2   -3   13    4    0.000347    0.000000
   -4   -2   -3   14    4    0.000166    0.000000
   -4   -2   -3   15    4    0.000000    0.000000
   -4   -2   -3   16    4    0.002083   -0.000000
   -4   -2   -3    1    5    0.001145   -0.000000
   -4   -2   -3    2    5    0.000050   -0.000000
   -4   -2   -3    3    5    0.001418   -0.000000
   -4   -2   -3    4    5   -0.000144   -0.000000
   -4   -2   -3    5    5   -0.001260   -0.000000
   -4   -2   -3    6    5   -0.000059   -0.000000
   -4   -2   -3    7    5   -0.000466   -0.000000
   -4   -2   -3    8    5    0.001059    0.000000
   -4   -2   -3    9    5    0.001066   -0.000000
   -4   -2   -3   10    5    0.000742    0.000000
   -4   -2   -3   11    5   -0.001126   -0.000000
   -4   -2   -3   12    5   -0.003909    0.000000
   -4   -2   -3   13    5    0.000483   -0.000000
   -4   -2   -3   14    5    0.000000    0.000000
   -4   -2   -3   15    5    0.005627    0.000000
   -4   -2   -3   16    5    0.000000    0.000000
   -4   -2   -3    1    6    0.001624   -0.000000
   -4   -2   -3    2    6   -0.000825    0.000000
   -4   -2   -3    3    6    0.000000   -0.000000
   -4   -2   -3    4    6    0.000737    0.000000
   -4   -2   -3    5    6    0.000000   -0.000000
   -4   -2   -3    6    6    0.000556   -0.000000
   -4   -2   -3    7    6   -0.002240   -0.000000
   -4   -2   -3    8    6   -0.000803    0.000000
   -4   -2   -3    9    6   -0.000763    0.000000
   -4   -2   -3   10    6   -0.001145   -0.000000
   -4   -2   -3   11    6   -0.002240   -0.000000
   -4   -2   -3   12    6   -0.000834    0.000000
   -4   -2   -3   13    6   -0.000000    0.000000
   -4   -2   -3   14    6    0.001432   -0.000000
   -4   -2   -3   15    6    0.000000    0.000000
   -4   -2   -3   16    6   -0.000000    0.000000
   -4   -2   -3    1    7   -0.003677   -0.000000
   -4   -2   -3    2    7    0.001005    0.000000
   -4   -2   -3    3    7   -0.000000   -0.000000
   -4   -2   -3    4    7    0.003361   -0.000000
   -4   -2   -3    5    7    0.000000   -0.000000
   -4   -2   -3    6    7    0.000880   -0.000000
   -4   -2   -3    7    7   -0.000070    0.000000
   -4   -2   -3    8    7    0.002384   -0.000000
   -4   -2   -3    9    7   -0.001094   -0.000000
   -4   -2   -3   10    7   -0.001418    0.000000
   -4   -2   -3   11    7   -0.002391    0.000000
   -4   -2   -3   12    7   -0.001657   -0.000000
   -4   -2   -3   13    7   -0.000000    0.000000
   -4   -2   -3   14    7    0.000000    0.000000
   -4   -2   -3   15    7   -0.000114   -0.000000
   -4   -2   -3   16    7   -0.000000   -0.000000
   -4   -2   -3    1    8    0.000000   -0.000000
   -4   -2   -3    2    8    0.000000    0.000000
   -4   -2   -3    3    8    0.000547    0.000000
   -4   -2   -3    4    8    0.000000   -0.000000
   -4   -2   -3    5    8    0.002952    0.000000
   -4   -2   -3    6    8   -0.000307    0.000000
   -4   -2   -3    7    8   -0.000749    0.000000
   -4   -2   -3    8    8   -0.000741   -0.000000
   -4   -2   -3    9    8   -0.001061    0.000000
   -4   -2   -3   10    8   -0.000050   -0.000000
   -4   -2   -3   11    8   -0.000000    0.000000
   -4   -2   -3   12    8   -0.000000   -0.000000
   -4   -2   -3   13    8    0.000528   -0.000000
   -4   -2   -3   14    8    0.000000   -0.000000
   -4   -2   -3   15    8   -0.000000   -0.000000
   -4   -2   -3   16    8   -0.000892    0.000000
   -4   -2   -3    1    9    0.002134   -0.000000
   -4   -2   -3    2    9   -0.000532   -0.000000
   -4   -2   -3    3    9   -0.000000    0.000000
   -4   -2   -3    4    9    0.000363    0.000000
   -4   -2   -3    5    9    0.000000    0.000000
   -4   -2   -3    6    9   -0.000026   -0.000000
   -4   -2   -3    7    9   -0.001656   -0.000000
   -4   -2   -3    8    9   -0.001842    0.000000
   -4   -2   -3    9    9   -0.000123    0.000000
   -4   -2   -3   10    9   -0.000144    0.000000
   -4   -2   -3   11    9   -0.000934   -0.000000
   -4   -2   -3   12    9    0.000369    0.000000
   -4   -2   -3   13    9   -0.000000    0.000000
   -4   -2   -3   14    9    0.003219    0.000000
   -4   -2   -3   15    9    0.000000    0.000000
   -4   -2   -3   16    9   -0.000000    0.000000
   -4   -2   -3    1   10    0.000000   -0.000000
   -4   -2   -3    2   10   -0.000000    0.000000
   -4   -2   -3    3   10    0.002084   -0.000000
   -4   -2   -3    4   10   -0.000000   -0.000000
   -4   -2   -3    5   10    0.001010   -0.000000
   -4   -2   -3    6   10   -0.001107    0.000000
   -4   -2   -3    7   10   -0.001229    0.000000
   -4   -2   -3    8   10   -0.000317   -0.000000
   -4   -2   -3    9   10    0.000931   -0.000000
   -4   -2   -3   10   10    0.001260   -0.000000
   -4   -2   -3   11   10    0.000000    0.000000
   -4   -2   -3   12   10    0.000000   -0.000000
   -4   -2   -3   13   10    0.001931   -0.000000
   -4   -2   -3   14   10    0.000000   -0.000000
   -4   -2   -3   15   10    0.000000   -0.000000
   -4   -2   -3   16   10    0.000000    0.000000
   -4   -2   -3    1   11   -0.000375    0.000000
   -4   -2   -3    2   11   -0.000268   -0.000000
   -4   -2   -3    3   11    0.005703   -0.000000
   -4   -2   -3    4   11   -0.000126   -0.000000
   -4   -2   -3    5   11   -0.000349    0.000000
   -4   -2   -3    6   11   -0.001676   -0.000000
   -4   -2   -3    7   11    0.002244   -0.000000
   -4   -2   -3    8   11    0.001032   -0.000000
   -4   -2   -3    9   11   -0.000037    0.000000
   -4   -2   -3   10   11    0.001328    0.000000
   -4   -2   -3   11   11   -0.000239    0.000000
   -4   -2   -3   12   11   -0.000397    0.000000
   -4   -2   -3   13   11   -0.000188   -0.000000
   -4   -2   -3   14   11    0.000765   -0.000000
   -4   -2   -3   15   11    0.000000    0.000000
   -4   -2   -3   16   11    0.002987    0.000000
   -4   -2   -3    1   12    0.001540   -0.000000
   -4   -2   -3    2   12    0.000999   -0.000000
   -4   -2   -3    3   12   -0.003331    0.000000
   -4   -2   -3    4   12   -0.002800    0.000000
   -4   -2   -3    5   12   -0.004965   -0.000000
   -4   -2   -3    6   12    0.004128   -0.000000
   -4   -2   -3    7   12    0.003385   -0.000000
   -4   -2   -3    8   12   -0.000337   -0.000000
   -4   -2   -3    9   12    0.000677    0.000000
   -4   -2   -3   10   12    0.000239    0.000000
   -4   -2   -3   11   12   -0.000561    0.000000
   -4   -2   -3   12   12   -0.001112    0.000000
   -4   -2   -3   13   12   -0.001014   -0.000000
   -4   -2   -3   14   12    0.000000    0.000000
   -4   -2   -3   15   12    0.001718    0.000000
   -4   -2   -3   16   12   -0.000000    0.000000
   -4   -2   -3    1   13    0.000643    0.000000
   -4   -2   -3    2   13   -0.004005   -0.000000
   -4   -2   -3    3   13   -0.000541    0.000000
   -4   -2   -3    4   13   -0.000229   -0.000000
   -4   -2   -3    5   13    0.000714    0.000000
   -4   -2   -3    6   13    0.001486    0.000000
   -4   -2   -3    7   13    0.002384   -0.000000
   -4   -2   -3    8   13    0.000850   -0.000000
   -4   -2   -3    9   13    0.001208   -0.000000
   -4   -2   -3   10   13    0.001025   -0.000000
   -4   -2   -3   11   13    0.000700   -0.000000
   -4   -2   -3   12   13   -0.001037   -0.000000
   -4   -2   -3   13   13    0.000025   -0.000000
   -4   -2   -3   14   13    0.002956    0.000000
   -4   -2   -3   15   13    0.000000    0.000000
   -4   -2   -3   16   13    0.002420   -0.000000
   -4   -2   -3    1   14    0.000806    0.000000
   -4   -2   -3    2   14    0.000579   -0.000000
   -4   -2   -3    3   14    0.002814   -0.000000
   -4   -2   -3    4   14    0.001272    0.000000
   -4   -2   -3    5   14   -0.000338   -0.000000
   -4   -2   -3    6   14   -0.000824    0.000000
   -4   -2   -3    7   14    0.000824    0.000000
   -4   -2   -3    8   14    0.000034    0.000000
   -4   -2   -3    9   14   -0.000792    0.000000
   -4   -2   -3   10   14    0.000651   -0.000000
   -4   -2   -3   11   14    0.001178    0.000000
   -4   -2   -3   12   14   -0.000003    0.000000
   -4   -2   -3   13   14    0.000039   -0.000000
   -4   -2   -3   14   14    0.000239    0.000000
   -4   -2   -3   15   14   -0.000700    0.000000
   -4   -2   -3   16   14    0.000561   -0.000000
   -4   -2   -3    1   15    0.001097    0.000000
   -4   -2   -3    2   15   -0.000229    0.000000
   -4   -2   -3    3   15   -0.000677    0.000000
   -4   -2   -3    4   15   -0.000659    0.000000
   -4   -2   -3    5   15    0.003262   -0.000000
   -4   -2   -3    6   15   -0.001362    0.000000
   -4   -2   -3    7   15   -0.001152    0.000000
   -4   -2   -3    8   15   -0.002139   -0.000000
   -4   -2   -3    9   15   -0.000646   -0.000000
   -4   -2   -3   10   15    0.000870   -0.000000
   -4   -2   -3   11   15    0.000839    0.000000
   -4   -2   -3   12   15   -0.000906   -0.000000
   -4   -2   -3   13   15    0.000027   -0.000000
   -4   -2   -3   14   15    0.000188    0.000000
   -4   -2   -3   15   15   -0.000025    0.000000
   -4   -2   -3   16   15    0.001014   -0.000000
   -4   -2   -3    1   16    0.000754   -0.000000
   -4   -2   -3    2   16   -0.001758   -0.000000
   -4   -2   -3    3   16    0.000452    0.000000
   -4   -2   -3    4   16    0.000991    0.000000
   -4   -2   -3    5   16    0.001586    0.000000
   -4   -2   -3    6   16   -0.000113   -0.000000
   -4   -2   -3    7   16   -0.002137   -0.000000
   -4   -2   -3    8   16   -0.000507   -0.000000
   -4   -2   -3    9   16   -0.001032   -0.000000
   -4   -2   -3   10   16   -0.000461    0.000000
   -4   -2   -3   11   16    0.000680   -0.000000
   -4   -2   -3   12   16   -0.000905    0.000000
   -4   -2   -3   13   16    0.000479   -0.000000
   -4   -2   -3   14   16    0.000397   -0.000000
   -4   -2   -3   15   16    0.001037   -0.000000
   -4   -2   -3   16   16    0.001112    0.000000
   -4   -1   -3    1    1   -0.000236   -0.000000
   -4   -1   -3    2    1   -0.000000   -0.000000
   -4   -1   -3    3    1   -0.000000   -0.000000
   -4   -1   -3    4    1    0.000244   -0.000000
   -4   -1   -3    5    1   -0.000000   -0.000000
   -4   -1   -3    6    1   -0.000679   -0.000000
   -4   -1   -3    7    1   -0.000000    0.000000
   -4   -1   -3    8    1   -0.001967    0.000000
   -4   -1   -3    9    1    0.002769    0.000000
   -4   -1   -3   10    1    0.000000   -0.000000
   -4   -1   -3   11    1    0.008739    0.000000
   -4   -1   -3   12    1    0.000000   -0.000000
   -4   -1   -3   13    1    0.000000    0.000000
   -4   -1   -3   14    1    0.002895    0.000000
   -4   -1   -3   15    1   -0.008578    0.000000
   -4   -1   -3   16    1    0.000000   -0.000000
   -4   -1   -3    1    2    0.000000    0.000000
   -4   -1   -3    2    2   -0.004352    0.000000
   -4   -1   -3    3    2   -0.000000   -0.000000
   -4   -1   -3    4    2   -0.000000    0.000000
   -4   -1   -3    5    2    0.000000    0.000000
   -4   -1   -3    6    2   -0.000000    0.000000
   -4   -1   -3    7    2    0.004226   -0.000000
   -4   -1   -3    8    2    0.000000   -0.000000
   -4   -1   -3    9    2    0.000000   -0.000000
   -4   -1   -3   10    2    0.001866    0.000000
   -4   -1   -3   11    2    0.000000   -0.000000
   -4   -1   -3   12    2   -0.000385   -0.000000
   -4   -1   -3   13    2    0.000000   -0.000000
   -4   -1   -3   14    2    0.007419    0.000000
   -4   -1   -3   15    2   -0.005781    0.000000
   -4   -1   -3   16    2   -0.000000   -0.000000
   -4   -1   -3    1    3    0.000000    0.000000
   -4   -1   -3    2    3   -0.000000    0.000000
   -4   -1   -3    3    3   -0.001385    0.000000
   -4   -1   -3    4    3    0.000000   -0.000000
   -4   -1   -3    5    3    0.000000   -0.000000
   -4   -1   -3    6    3    0.000134   -0.000000
   -4   -1   -3    7    3    0.000000   -0.000000
   -4   -1   -3    8    3   -0.003174   -0.000000
   -4   -1   -3    9    3   -0.000541    0.000000
   -4   -1   -3   10    3    0.000000    0.000000
   -4   -1   -3   11    3   -0.000000    0.000000
   -4   -1   -3   12    3    0.000000   -0.000000
   -4   -1   -3   13    3   -0.003066    0.000000
   -4   -1   -3   14    3    0.000000   -0.000000
   -4   -1   -3   15    3   -0.000000    0.000000
   -4   -1   -3   16    3    0.006442    0.000000
   -4   -1   -3    1    4    0.001324    0.000000
   -4   -1   -3    2    4    0.000000   -0.000000
   -4   -1   -3    3    4    0.000000    0.000000
   -4   -1   -3    4    4   -0.003884    0.000000
   -4   -1   -3    5    4    0.000000   -0.000000
   -4   -1   -3    6    4   -0.000147   -0.000000
   -4   -1   -3    7    4    0.000000    0.000000
   -4   -1   -3    8    4   -0.002522    0.000000
   -4   -1   -3    9    4    0.000412   -0.000000
   -4   -1   -3   10    4   -0.000000    0.000000
   -4   -1   -3   11    4    0.000661    0.000000
   -4   -1   -3   12    4   -0.000000    0.000000
   -4   -1   -3   13    4    0.000000    0.000000
   -4   -1   -3   14    4    0.004899    0.000000
   -4   -1   -3   15    4    0.004921    0.000000
   -4   -1   -3   16    4   -0.000000    0.000000
   -4   -1   -3    1    5   -0.000000    0.000000
   -4   -1   -3    2    5    0.000000   -0.000000
   -4   -1   -3    3    5   -0.000000    0.000000
   -4   -1   -3    4    5   -0.000000    0.000000
   -4   -1   -3    5    5    0.003102    0.000000
   -4   -1   -3    6    5   -0.000000   -0.000000
   -4   -1   -3    7    5    0.000167   -0.000000
   -4   -1   -3    8    5   -0.000000   -0.000000
   -4   -1   -3    9    5   -0.000000    0.000000
   -4   -1   -3   10    5   -0.005524    0.000000
   -4   -1   -3   11    5   -0.000000   -0.000000
   -4   -1   -3   12    5    0.000000   -0.000000
   -4   -1   -3   13    5    0.000000    0.000000
   -4   -1   -3   14    5   -0.000000   -0.000000
   -4   -1   -3   15    5   -0.000000    0.000000
   -4   -1   -3   16    5    0.010528   -0.000000
   -4   -1   -3    1    6   -0.001624    0.000000
   -4   -1   -3    2    6   -0.000000   -0.000000
   -4   -1   -3    3    6   -0.003677    0.000000
   -4   -1   -3    4    6    0.002134    0.000000
   -4   -1   -3    5    6    0.000000    0.000000
   -4   -1   -3    6    6   -0.003954   -0.000000
   -4   -1   -3    7    6    0.000000   -0.000000
   -4   -1   -3    8    6    0.000000   -0.000000
   -4   -1   -3    9    6   -0.004547    0.000000
   -4   -1   -3   10    6   -0.000000   -0.000000
   -4   -1   -3   11    6    0.003085    0.000000
   -4   -1   -3   12    6    0.000000    0.000000
   -4   -1   -3   13    6    0.004802    0.000000
   -4   -1   -3   14    6    0.000375    0.000000
   -4   -1   -3   15    6    0.000643   -0.000000
   -4   -1   -3   16    6    0.001540   -0.000000
   -4   -1   -3    1    7   -0.000000   -0.000000
   -4   -1   -3    2    7   -0.000547    0.000000
   -4   -1   -3    3    7   -0.000000    0.000000
   -4   -1   -3    4    7   -0.000000   -0.000000
   -4   -1   -3    5    7    0.002084    0.000000
   -4   -1   -3    6    7   -0.000000    0.000000
   -4   -1   -3    7    7   -0.005943   -0.000000
   -4   -1   -3    8    7   -0.000000    0.000000
   -4   -1   -3    9    7   -0.000000    0.000000
   -4   -1   -3   10    7    0.000000    0.000000
   -4   -1   -3   11    7    0.000000    0.000000
   -4   -1   -3   12    7   -0.010184   -0.000000
   -4   -1   -3   13    7    0.000000    0.000000
   -4   -1   -3   14    7    0.005703   -0.000000
   -4   -1   -3   15    7    0.000541    0.000000
   -4   -1   -3   16    7    0.003331   -0.000000
   -4   -1   -3    1    8   -0.000825   -0.000000
   -4   -1   -3    2    8    0.000000    0.000000
   -4   -1   -3    3    8   -0.001005    0.000000
   -4   -1   -3    4    8    0.000532   -0.000000
   -4   -1   -3    5    8    0.000000    0.000000
   -4   -1   -3    6    8   -0.000000    0.000000
   -4   -1   -3    7    8   -0.000000   -0.000000
   -4   -1   -3    8    8    0.001380   -0.000000
   -4   -1   -3    9    8    0.000000    0.000000
   -4   -1   -3   10    8    0.000000   -0.000000
   -4   -1   -3   11    8   -0.008682   -0.000000
   -4   -1   -3   12    8    0.000000   -0.000000
   -4   -1   -3   13    8    0.006630   -0.000000
   -4   -1   -3   14    8   -0.000268    0.000000
   -4   -1   -3   15    8    0.004005   -0.000000
   -4   -1   -3   16    8   -0.000999   -0.000000
   -4   -1   -3    1    9    0.000737   -0.000000
   -4   -1   -3    2    9    0.000000    0.000000
   -4   -1   -3    3    9   -0.003361   -0.000000
   -4   -1   -3    4    9   -0.000363    0.000000
   -4   -1   -3    5    9    0.000000   -0.000000
   -4   -1   -3    6    9   -0.002068   -0.000000
   -4   -1   -3    7    9   -0.000000   -0.000000
   -4   -1   -3    8    9   -0.000000   -0.000000
   -4   -1   -3    9    9   -0.001679   -0.000000
   -4   -1   -3   10    9   -0.000000    0.000000
   -4   -1   -3   11    9   -0.002146    0.000000
   -4   -1   -3   12    9    0.000000    0.000000
   -4   -1   -3   13    9    0.006776   -0.000000
   -4   -1   -3   14    9   -0.000126    0.000000
   -4   -1   -3   15    9    0.000229   -0.000000
   -4   -1   -3   16    9    0.002800    0.000000
   -4   -1   -3    1   10   -0.000000    0.000000
   -4   -1   -3    2   10    0.002952   -0.000000
   -4   -1   -3    3   10   -0.000000   -0.000000
   -4   -1   -3    4   10   -0.000000   -0.000000
   -4   -1   -3    5   10   -0.001010   -0.000000
   -4   -1   -3    6   10   -0.000000    0.000000
   -4   -1   -3    7   10    0.000000   -0.000000
   -4   -1   -3    8   10   -0.000000    0.000000
   -4   -1   -3    9   10   -0.000000   -0.000000
   -4   -1   -3   10   10   -0.000271   -0.000000
   -4   -1   -3   11   10    0.000000   -0.000000
   -4   -1   -3   12   10   -0.011898   -0.000000
   -4   -1   -3   13   10   -0.000000   -0.000000
   -4   -1   -3   14   10    0.000349    0.000000
   -4   -1   -3   15   10    0.000714    0.000000
   -4   -1   -3   16   10   -0.004965    0.000000
   -4   -1   -3    1   11   -0.001432   -0.000000
   -4   -1   -3    2   11    0.000000    0.000000
   -4   -1   -3    3   11    0.000000   -0.000000
   -4   -1   -3    4   11    0.003219   -0.000000
   -4   -1   -3    5   11    0.000000    0.000000
   -4   -1   -3    6   11   -0.002121   -0.000000
   -4   -1   -3    7   11   -0.000000   -0.000000
   -4   -1   -3    8   11    0.001547    0.000000
   -4   -1   -3    9   11    0.000881   -0.000000
   -4   -1   -3   10   11   -0.000000    0.000000
   -4   -1   -3   11   11   -0.003109   -0.000000
   -4   -1   -3   12   11   -0.000000    0.000000
   -4   -1   -3   13   11    0.000000   -0.000000
   -4   -1   -3   14   11   -0.000765   -0.000000
   -4   -1   -3   15   11    0.002956   -0.000000
   -4   -1   -3   16   11   -0.000000    0.000000
   -4   -1   -3    1   12    0.000000    0.000000
   -4   -1   -3    2   12    0.000892    0.000000
   -4   -1   -3    3   12   -0.000000    0.000000
   -4   -1   -3    4   12    0.000000   -0.000000
   -4   -1   -3    5   12   -0.000000    0.000000
   -4   -1   -3    6   12   -0.000000   -0.000000
   -4   -1   -3    7   12   -0.003104    0.000000
   -4   -1   -3    8   12   -0.000000    0.000000
   -4   -1   -3    9   12   -0.000000   -0.000000
   -4   -1   -3   10   12    0.001167    0.000000
   -4   -1   -3   11   12   -0.000000   -0.000000
   -4   -1   -3   12   12   -0.005856   -0.000000
   -4   -1   -3   13   12    0.000000    0.000000
   -4   -1   -3   14   12    0.002987   -0.000000
   -4   -1   -3   15   12   -0.002420   -0.000000
   -4   -1   -3   16   12   -0.000000   -0.000000
   -4   -1   -3    1   13    0.000000   -0.000000
   -4   -1   -3    2   13    0.000000    0.000000
   -4   -1   -3    3   13    0.000114   -0.000000
   -4   -1   -3    4   13   -0.000000   -0.000000
   -4   -1   -3    5   13   -0.000000   -0.000000
   -4   -1   -3    6   13   -0.000192   -0.000000
   -4   -1   -3    7   13   -0.000000   -0.000000
   -4   -1   -3    8   13   -0.000490    0.000000
   -4   -1   -3    9   13   -0.000503    0.000000
   -4   -1   -3   10   13   -0.000000    0.000000
   -4   -1   -3   11   13    0.000000    0.000000
   -4   -1   -3   12   13    0.000000   -0.000000
   -4   -1   -3   13   13    0.000797   -0.000000
   -4   -1   -3   14   13   -0.000000    0.000000
   -4   -1   -3   15   13    0.000000   -0.000000
   -4   -1   -3   16   13   -0.001718    0.000000
   -4   -1   -3    1   14   -0.001578   -0.000000
   -4   -1   -3    2   14    0.000059   -0.000000
   -4   -1   -3    3   14   -0.000000    0.000000
   -4   -1   -3    4   14    0.002764   -0.000000
   -4   -1   -3    5   14    0.000000    0.000000
   -4   -1   -3    6   14    0.000261   -0.000000
   -4   -1   -3    7   14   -0.000289    0.000000
   -4   -1   -3    8   14   -0.002073   -0.000000
   -4   -1   -3    9   14    0.001924   -0.000000
   -4   -1   -3   10   14   -0.003228   -0.000000
   -4   -1   -3   11   14    0.005082    0.000000
   -4   -1   -3   12   14    0.005881    0.000000
   -4   -1   -3   13   14    0.000000   -0.000000
   -4   -1   -3   14   14   -0.001910    0.000000
   -4   -1   -3   15   14   -0.000000    0.000000
   -4   -1   -3   16   14    0.000000   -0.000000
   -4   -1   -3    1   15   -0.001858   -0.000000
   -4   -1   -3    2   15   -0.000064   -0.000000
   -4   -1   -3    3   15    0.000000   -0.000000
   -4   -1   -3    4   15    0.002234   -0.000000
   -4   -1   -3    5   15    0.000000   -0.000000
   -4   -1   -3    6   15   -0.001073    0.000000
   -4   -1   -3    7   15    0.002288   -0.000000
   -4   -1   -3    8   15    0.002507    0.000000
   -4   -1   -3    9   15   -0.001523    0.000000
   -4   -1   -3   10   15    0.001706   -0.000000
   -4   -1   -3   11   15   -0.001187    0.000000
   -4   -1   -3   12   15   -0.011421    0.000000
   -4   -1   -3   13   15   -0.000000    0.000000
   -4   -1   -3   14   15    0.000000   -0.000000
   -4   -1   -3   15   15    0.005647   -0.000000
   -4   -1   -3   16   15    0.000000   -0.000000
   -4   -1   -3    1   16   -0.000000    0.000000
   -4   -1   -3    2   16    0.000000    0.000000
   -4   -1   -3    3   16    0.000634   -0.000000
   -4   -1   -3    4   16    0.000000   -0.000000
   -4   -1   -3    5   16    0.002644    0.000000
   -4   -1   -3    6   16   -0.000618    0.000000
   -4   -1   -3    7   16   -0.000993    0.000000
   -4   -1   -3    8   16    0.001704    0.000000
   -4   -1   -3    9   16   -0.001176   -0.000000
   -4   -1   -3   10   16   -0.004804   -0.000000
   -4   -1   -3   11   16    0.000000   -0.000000
   -4   -1   -3   12   16   -0.000000    0.000000
   -4   -1   -3   13   16   -0.009846   -0.000000
   -4   -1   -3   14   16   -0.000000    0.000000
   -4   -1   -3   15   16    0.000000    0.000000
   -4   -1   -3   16   16    0.009281    0.000000
   -4   -1   -2    1    1   -0.000556   -0.000000
   -4   -1   -2    2    1   -0.000307   -0.000000
   -4   -1   -2    3    1   -0.000880   -0.000000
   -4   -1   -2    4    1   -0.000026    0.000000
   -4   -1   -2    5    1   -0.001107   -0.000000
   -4   -1   -2    6    1   -0.000695    0.000000
   -4   -1   -2    7    1   -0.002414    0.000000
   -4   -1   -2    8    1   -0.000228    0.000000
   -4   -1   -2    9    1   -0.000166    0.000000
   -4   -1   -2   10    1    0.001995    0.000000
   -4   -1   -2   11    1    0.002402   -0.000000
   -4   -1   -2   12    1   -0.001517   -0.000000
   -4   -1   -2   13    1    0.002464    0.000000
   -4   -1   -2   14    1    0.001676   -0.000000
   -4   -1   -2   15    1    0.001486   -0.000000
   -4   -1   -2   16    1   -0.004128   -0.000000
   -4   -1   -2    1    2   -0.000803   -0.000000
   -4   -1   -2    2    2    0.000741   -0.000000
   -4   -1   -2    3    2    0.002384    0.000000
   -4   -1   -2    4    2    0.001842    0.000000
   -4   -1   -2    5    2    0.000317   -0.000000
   -4   -1   -2    6    2   -0.001148   -0.000000
   -4   -1   -2    7    2   -0.000793   -0.000000
   -4   -1   -2    8    2    0.001508    0.000000
   -4   -1   -2    9    2   -0.000366   -0.000000
   -4   -1   -2   10    2   -0.000724   -0.000000
   -4   -1   -2   11    2    0.000068    0.000000
   -4   -1   -2   12    2    0.000752    0.000000
   -4   -1   -2   13    2    0.000065    0.000000
   -4   -1   -2   14    2    0.001032    0.000000
   -4   -1   -2   15    2   -0.000850   -0.000000
   -4   -1   -2   16    2   -0.000337    0.000000
   -4   -1   -2    1    3    0.002240   -0.000000
   -4   -1   -2    2    3   -0.000749   -0.000000
   -4   -1   -2    3    3    0.000070    0.000000
   -4   -1   -2    4    3   -0.001656    0.000000
   -4   -1   -2    5    3   -0.001229   -0.000000
   -4   -1   -2    6    3   -0.001725    0.000000
   -4   -1   -2    7    3    0.001879    0.000000
   -4   -1   -2    8    3    0.002179    0.000000
   -4   -1   -2    9    3   -0.001950   -0.000000
   -4   -1   -2   10    3   -0.001579    0.000000
   -4   -1   -2   11    3   -0.005087   -0.000000
   -4   -1   -2   12    3    0.009648    0.000000
   -4   -1   -2   13    3   -0.004502   -0.000000
   -4   -1   -2   14    3   -0.002244   -0.000000
   -4   -1   -2   15    3    0.002384    0.000000
   -4   -1   -2   16    3   -0.003385   -0.000000
   -4   -1   -2    1    4   -0.000763   -0.000000
   -4   -1   -2    2    4    0.001061    0.000000
   -4   -1   -2    3    4   -0.001094    0.000000
   -4   -1   -2    4    4    0.000123    0.000000
   -4   -1   -2    5    4   -0.000931   -0.000000
   -4   -1   -2    6    4   -0.000898   -0.000000
   -4   -1   -2    7    4   -0.000105   -0.000000
   -4   -1   -2    8    4    0.001320    0.000000
   -4   -1   -2    9    4   -0.000922   -0.000000
   -4   -1   -2   10    4    0.001313   -0.000000
   -4   -1   -2   11    4   -0.002258    0.000000
   -4   -1   -2   12    4   -0.000294    0.000000
   -4   -1   -2   13    4    0.000347   -0.000000
   -4   -1   -2   14    4   -0.000037   -0.000000
   -4   -1   -2   15    4   -0.001208   -0.000000
   -4   -1   -2   16    4    0.000677   -0.000000
   -4   -1   -2    1    5   -0.001145    0.000000
   -4   -1   -2    2    5    0.000050   -0.000000
   -4   -1   -2    3    5   -0.001418   -0.000000
   -4   -1   -2    4    5    0.000144    0.000000
   -4   -1   -2    5    5   -0.001260   -0.000000
   -4   -1   -2    6    5    0.000059    0.000000
   -4   -1   -2    7    5   -0.000466   -0.000000
   -4   -1   -2    8    5   -0.001059   -0.000000
   -4   -1   -2    9    5   -0.001066   -0.000000
   -4   -1   -2   10    5    0.000742    0.000000
   -4   -1   -2   11    5    0.001126    0.000000
   -4   -1   -2   12    5   -0.003909   -0.000000
   -4   -1   -2   13    5   -0.000483    0.000000
   -4   -1   -2   14    5    0.001328    0.000000
   -4   -1   -2   15    5   -0.001025   -0.000000
   -4   -1   -2   16    5    0.000239   -0.000000
   -4   -1   -2    1    6    0.001624    0.000000
   -4   -1   -2    2    6    0.000825   -0.000000
   -4   -1   -2    3    6   -0.000000    0.000000
   -4   -1   -2    4    6    0.000737    0.000000
   -4   -1   -2    5    6    0.000000   -0.000000
   -4   -1   -2    6    6    0.000556   -0.000000
   -4   -1   -2    7    6    0.002240   -0.000000
   -4   -1   -2    8    6   -0.000803   -0.000000
   -4   -1   -2    9    6   -0.000763    0.000000
   -4   -1   -2   10    6    0.001145    0.000000
   -4   -1   -2   11    6   -0.002240    0.000000
   -4   -1   -2   12    6    0.000834   -0.000000
   -4   -1   -2   13    6    0.000000   -0.000000
   -4   -1   -2   14    6    0.000217    0.000000
   -4   -1   -2   15    6    0.001906    0.000000
   -4   -1   -2   16    6   -0.000000    0.000000
   -4   -1   -2    1    7    0.003677    0.000000
   -4   -1   -2    2    7    0.001005    0.000000
   -4   -1   -2    3    7   -0.000000   -0.000000
   -4   -1   -2    4    7   -0.003361    0.000000
   -4   -1   -2    5    7   -0.000000    0.000000
   -4   -1   -2    6    7   -0.000880   -0.000000
   -4   -1   -2    7    7   -0.000070   -0.000000
   -4   -1   -2    8    7   -0.002384    0.000000
   -4   -1   -2    9    7    0.001094   -0.000000
   -4   -1   -2   10    7   -0.001418   -0.000000
   -4   -1   -2   11    7    0.002391   -0.000000
   -4   -1   -2   12    7   -0.001657   -0.000000
   -4   -1   -2   13    7   -0.000000    0.000000
   -4   -1   -2   14    7   -0.000644    0.000000
   -4   -1   -2   15    7   -0.000534   -0.000000
   -4   -1   -2   16    7   -0.000000   -0.000000
   -4   -1   -2    1    8   -0.000000    0.000000
   -4   -1   -2    2    8    0.000000    0.000000
   -4   -1   -2    3    8    0.000547    0.000000
   -4   -1   -2    4    8    0.000000    0.000000
   -4   -1   -2    5    8   -0.002952   -0.000000
   -4   -1   -2    6    8   -0.000307   -0.000000
   -4   -1   -2    7    8    0.000749   -0.000000
   -4   -1   -2    8    8   -0.000741    0.000000
   -4   -1   -2    9    8   -0.001061    0.000000
   -4   -1   -2   10    8    0.000050    0.000000
   -4   -1   -2   11    8    0.000000   -0.000000
   -4   -1   -2   12    8   -0.000000   -0.000000
   -4   -1   -2   13    8    0.000528   -0.000000
   -4   -1   -2   14    8    0.000000    0.000000
   -4   -1   -2   15    8   -0.000000   -0.000000
   -4   -1   -2   16    8    0.004838   -0.000000
   -4   -1   -2    1    9    0.002134   -0.000000
   -4   -1   -2    2    9    0.000532    0.000000
   -4   -1   -2    3    9    0.000000   -0.000000
   -4   -1   -2    4    9    0.000363    0.000000
   -4   -1   -2    5    9    0.000000    0.000000
   -4   -1   -2    6    9   -0.000026   -0.000000
   -4   -1   -2    7    9    0.001656   -0.000000
   -4   -1   -2    8    9   -0.001842   -0.000000
   -4   -1   -2    9    9   -0.000123    0.000000
   -4   -1   -2   10    9    0.000144   -0.000000
   -4   -1   -2   11    9   -0.000934   -0.000000
   -4   -1   -2   12    9   -0.000369   -0.000000
   -4   -1   -2   13    9    0.000000   -0.000000
   -4   -1   -2   14    9   -0.000358   -0.000000
   -4   -1   -2   15    9    0.000415    0.000000
   -4   -1   -2   16    9    0.000000    0.000000
   -4   -1   -2    1   10    0.000000   -0.000000
   -4   -1   -2    2   10    0.000000   -0.000000
   -4   -1   -2    3   10   -0.002084    0.000000
   -4   -1   -2    4   10   -0.000000   -0.000000
   -4   -1   -2    5   10    0.001010   -0.000000
   -4   -1   -2    6   10    0.001107   -0.000000
   -4   -1   -2    7   10   -0.001229    0.000000
   -4   -1   -2    8   10    0.000317   -0.000000
   -4   -1   -2    9   10   -0.000931    0.000000
   -4   -1   -2   10   10    0.001260   -0.000000
   -4   -1   -2   11   10    0.000000    0.000000
   -4   -1   -2   12   10   -0.000000    0.000000
   -4   -1   -2   13   10   -0.001931    0.000000
   -4   -1   -2   14   10    0.000000    0.000000
   -4   -1   -2   15   10   -0.000000    0.000000
   -4   -1   -2   16   10   -0.005008    0.000000
   -4   -1   -2    1   11   -0.000375    0.000000
   -4   -1   -2    2   11    0.000268    0.000000
   -4   -1   -2    3   11    0.005703    0.000000
   -4   -1   -2    4   11   -0.000126   -0.000000
   -4   -1   -2    5   11    0.000349   -0.000000
   -4   -1   -2    6   11   -0.001676    0.000000
   -4   -1   -2    7   11   -0.002244   -0.000000
   -4   -1   -2    8   11    0.001032   -0.000000
   -4   -1   -2    9   11   -0.000037    0.000000
   -4   -1   -2   10   11   -0.001328   -0.000000
   -4   -1   -2   11   11   -0.000239   -0.000000
   -4   -1   -2   12   11    0.000397    0.000000
   -4   -1   -2   13   11   -0.000188    0.000000
   -4   -1   -2   14   11    0.000557    0.000000
   -4   -1   -2   15   11    0.001422    0.000000
   -4   -1   -2   16   11   -0.003402    0.000000
   -4   -1   -2    1   12   -0.001540   -0.000000
   -4   -1   -2    2   12    0.000999   -0.000000
   -4   -1   -2    3   12    0.003331    0.000000
   -4   -1   -2    4   12    0.002800   -0.000000
   -4   -1   -2    5   12   -0.004965   -0.000000
   -4   -1   -2    6   12   -0.004128   -0.000000
   -4   -1   -2    7   12    0.003385   -0.000000
   -4   -1   -2    8   12    0.000337    0.000000
   -4   -1   -2    9   12   -0.000677   -0.000000
   -4   -1   -2   10   12    0.000239    0.000000
   -4   -1   -2   11   12    0.000561    0.000000
   -4   -1   -2   12   12   -0.001112    0.000000
   -4   -1   -2   13   12    0.001014    0.000000
   -4   -1   -2   14   12   -0.000445    0.000000
   -4   -1   -2   15   12   -0.001413    0.000000
   -4   -1   -2   16   12   -0.000266   -0.000000
   -4   -1   -2    1   13    0.000643    0.000000
   -4   -1   -2    2   13    0.004005    0.000000
   -4   -1   -2    3   13   -0.000541    0.000000
   -4   -1   -2    4   13   -0.000229   -0.000000
   -4   -1   -2    5   13   -0.000714    0.000000
   -4   -1   -2    6   13    0.001486    0.000000
   -4   -1   -2    7   13   -0.002384    0.000000
   -4   -1   -2    8   13    0.000850   -0.000000
   -4   -1   -2    9   13    0.001208   -0.000000
   -4   -1   -2   10   13   -0.001025    0.000000
   -4   -1   -2   11   13    0.000700    0.000000
   -4   -1   -2   12   13    0.001037    0.000000
   -4   -1   -2   13   13    0.000025    0.000000
   -4   -1   -2   14   13   -0.000828    0.000000
   -4   -1   -2   15   13    0.000456   -0.000000
   -4   -1   -2   16   13   -0.002053    0.000000
   -4   -1   -2    1   14    0.002240    0.000000
   -4   -1   -2    2   14   -0.000000   -0.000000
   -4   -1   -2    3   14    0.002391    0.000000
   -4   -1   -2    4   14   -0.000934    0.000000
   -4   -1   -2    5   14    0.000000   -0.000000
   -4   -1   -2    6   14   -0.000955   -0.000000
   -4   -1   -2    7   14   -0.000000   -0.000000
   -4   -1   -2    8   14    0.000723   -0.000000
   -4   -1   -2    9   14   -0.000490    0.000000
   -4   -1   -2   10   14   -0.000000    0.000000
   -4   -1   -2   11   14   -0.000246    0.000000
   -4   -1   -2   12   14    0.000000    0.000000
   -4   -1   -2   13   14   -0.001921    0.000000
   -4   -1   -2   14   14    0.000239    0.000000
   -4   -1   -2   15   14    0.000700    0.000000
   -4   -1   -2   16   14    0.000561    0.000000
   -4   -1   -2    1   15   -0.000000   -0.000000
   -4   -1   -2    2   15   -0.000528   -0.000000
   -4   -1   -2    3   15    0.000000    0.000000
   -4   -1   -2    4   15    0.000000    0.000000
   -4   -1   -2    5   15   -0.001931   -0.000000
   -4   -1   -2    6   15    0.000000    0.000000
   -4   -1   -2    7   15   -0.000300    0.000000
   -4   -1   -2    8   15   -0.000000    0.000000
   -4   -1   -2    9   15    0.000000    0.000000
   -4   -1   -2   10   15    0.002013    0.000000
   -4   -1   -2   11   15    0.000000    0.000000
   -4   -1   -2   12   15    0.002442   -0.000000
   -4   -1   -2   13   15    0.000000   -0.000000
   -4   -1   -2   14   15   -0.000188    0.000000
   -4   -1   -2   15   15   -0.000025    0.000000
   -4   -1   -2   16   15   -0.001014    0.000000
   -4   -1   -2    1   16    0.000834    0.000000
   -4   -1   -2    2   16   -0.000000   -0.000000
   -4   -1   -2    3   16    0.001657   -0.000000
   -4   -1   -2    4   16    0.000369   -0.000000
   -4   -1   -2    5   16    0.000000    0.000000
   -4   -1   -2    6   16   -0.000527   -0.000000
   -4   -1   -2    7   16   -0.000000   -0.000000
   -4   -1   -2    8   16   -0.002933    0.000000
   -4   -1   -2    9   16    0.001424    0.000000
   -4   -1   -2   10   16    0.000000    0.000000
   -4   -1   -2   11   16    0.000239   -0.000000
   -4   -1   -2   12   16    0.000000   -0.000000
   -4   -1   -2   13   16   -0.001536    0.000000
   -4   -1   -2   14   16    0.000397    0.000000
   -4   -1   -2   15   16   -0.001037    0.000000
   -4   -1   -2   16   16    0.001112   -0.000000
   -4    0   -2    1    1    0.003649    0.000000
   -4    0   -2    2    1   -0.002150    0.000000
   -4    0   -2    3    1   -0.000000   -0.000000
   -4    0   -2    4    1   -0.001623    0.000000
   -4    0   -2    5    1   -0.000000    0.000000
   -4    0   -2    6    1   -0.000447    0.000000
   -4    0   -2    7    1    0.000993    0.000000
   -4    0   -2    8    1    0.000718   -0.000000
   -4    0   -2    9    1    0.001491   -0.000000
   -4    0   -2   10    1   -0.005726    0.000000
   -4    0   -2   11    1    0.002947   -0.000000
   -4    0   -2   12    1   -0.004187    0.000000
   -4    0   -2   13    1   -0.000000    0.000000
   -4    0   -2   14    1   -0.001012    0.000000
   -4    0   -2   15    1   -0.000937   -0.000000
   -4    0   -2   16    1    0.000000   -0.000000
   -4    0   -2    1    2    0.003552    0.000000
   -4    0   -2    2    2   -0.000176   -0.000000
   -4    0   -2    3    2   -0.000000    0.000000
   -4    0   -2    4    2   -0.000492    0.000000
   -4    0   -2    5    2    0.000000   -0.000000
   -4    0   -2    6    2   -0.001311    0.000000
   -4    0   -2    7    2   -0.002117    0.000000
   -4    0   -2    8    2   -0.003345    0.000000
   -4    0   -2    9    2    0.001584    0.000000
   -4    0   -2   10    2   -0.009042    0.000000
   -4    0   -2   11    2    0.005865    0.000000
   -4    0   -2   12    2    0.005674   -0.000000
   -4    0   -2   13    2   -0.000000   -0.000000
   -4    0   -2   14    2   -0.010911    0.000000
   -4    0   -2   15    2    0.001167   -0.000000
   -4    0   -2   16    2   -0.000000   -0.000000
   -4    0   -2    1    3    0.000000   -0.000000
   -4    0   -2    2    3    0.000000   -0.000000
   -4    0   -2    3    3    0.002867    0.000000
[...]
    4    3    5    2    8    0.001268   -0.000000
    4    3    5    3    8   -0.000797   -0.000000
    4    3    5    4    8    0.001624    0.000000
    4    3    5    5    8   -0.001223   -0.000000
    4    3    5    6    8    0.000000    0.000000
    4    3    5    7    8    0.000000   -0.000000
    4    3    5    8    8   -0.001709   -0.000000
    4    3    5    9    8   -0.000000   -0.000000
    4    3    5   10    8    0.001291    0.000000
    4    3    5   11    8    0.000036   -0.000000
    4    3    5   12    8    0.002458   -0.000000
    4    3    5   13    8   -0.001141    0.000000
    4    3    5   14    8   -0.000634   -0.000000
    4    3    5   15    8   -0.001597    0.000000
    4    3    5   16    8    0.000580   -0.000000
    4    3    5    1    9    0.001463    0.000000
    4    3    5    2    9   -0.000960    0.000000
    4    3    5    3    9    0.005516    0.000000
    4    3    5    4    9   -0.000419    0.000000
    4    3    5    5    9    0.001847    0.000000
    4    3    5    6    9   -0.003494   -0.000000
    4    3    5    7    9   -0.003228    0.000000
    4    3    5    8    9   -0.000000   -0.000000
    4    3    5    9    9   -0.003509    0.000000
    4    3    5   10    9    0.000000    0.000000
    4    3    5   11    9    0.000073   -0.000000
    4    3    5   12    9    0.001281   -0.000000
    4    3    5   13    9    0.003409   -0.000000
    4    3    5   14    9    0.000405    0.000000
    4    3    5   15    9   -0.000060    0.000000
    4    3    5   16    9    0.000288   -0.000000
    4    3    5    1   10   -0.000492   -0.000000
    4    3    5    2   10    0.006794    0.000000
    4    3    5    3   10    0.001453   -0.000000
    4    3    5    4   10   -0.001528   -0.000000
    4    3    5    5   10   -0.004890   -0.000000
    4    3    5    6   10    0.000000    0.000000
    4    3    5    7   10    0.000000    0.000000
    4    3    5    8   10    0.000131    0.000000
    4    3    5    9   10    0.000000   -0.000000
    4    3    5   10   10    0.001975    0.000000
    4    3    5   11   10   -0.000483   -0.000000
    4    3    5   12   10    0.000271   -0.000000
    4    3    5   13   10   -0.000241    0.000000
    4    3    5   14   10    0.002139   -0.000000
    4    3    5   15   10   -0.002010   -0.000000
    4    3    5   16   10   -0.002346   -0.000000
    4    3    5    1   11   -0.000962   -0.000000
    4    3    5    2   11   -0.002868   -0.000000
    4    3    5    3   11   -0.000000   -0.000000
    4    3    5    4   11    0.002310    0.000000
    4    3    5    5   11   -0.000000    0.000000
    4    3    5    6   11    0.002086    0.000000
    4    3    5    7   11   -0.006195   -0.000000
    4    3    5    8   11   -0.001727    0.000000
    4    3    5    9   11    0.001521    0.000000
    4    3    5   10   11    0.002328   -0.000000
    4    3    5   11   11   -0.000032    0.000000
    4    3    5   12   11   -0.003187   -0.000000
    4    3    5   13   11   -0.000000   -0.000000
    4    3    5   14   11    0.001646    0.000000
    4    3    5   15   11    0.000456   -0.000000
    4    3    5   16   11    0.000000    0.000000
    4    3    5    1   12    0.000500   -0.000000
    4    3    5    2   12   -0.008586    0.000000
    4    3    5    3   12   -0.000000    0.000000
    4    3    5    4   12   -0.002343   -0.000000
    4    3    5    5   12    0.000000    0.000000
    4    3    5    6   12   -0.001301   -0.000000
    4    3    5    7   12   -0.001877    0.000000
    4    3    5    8   12    0.000386   -0.000000
    4    3    5    9   12    0.003098   -0.000000
    4    3    5   10   12    0.009133    0.000000
    4    3    5   11   12   -0.000373   -0.000000
    4    3    5   12   12   -0.000071    0.000000
    4    3    5   13   12   -0.000000    0.000000
    4    3    5   14   12    0.001124   -0.000000
    4    3    5   15   12    0.009452    0.000000
    4    3    5   16   12   -0.000000   -0.000000
    4    3    5    1   13    0.000000    0.000000
    4    3    5    2   13   -0.000000    0.000000
    4    3    5    3   13   -0.004948   -0.000000
    4    3    5    4   13   -0.000000   -0.000000
    4    3    5    5   13    0.006593    0.000000
    4    3    5    6   13    0.003367    0.000000
    4    3    5    7   13   -0.003567   -0.000000
    4    3    5    8   13   -0.006008   -0.000000
    4    3    5    9   13    0.002693    0.000000
    4    3    5   10   13   -0.000947    0.000000
    4    3    5   11   13   -0.000000   -0.000000
    4    3    5   12   13    0.000000   -0.000000
    4    3    5   13   13   -0.000546   -0.000000
    4    3    5   14   13    0.000000    0.000000
    4    3    5   15   13   -0.000000   -0.000000
    4    3    5   16   13    0.001750    0.000000
    4    3    5    1   14   -0.001012   -0.000000
    4    3    5    2   14    0.010911    0.000000
    4    3    5    3   14   -0.000000   -0.000000
    4    3    5    4   14   -0.004598    0.000000
    4    3    5    5   14    0.000000    0.000000
    4    3    5    6   14   -0.000357    0.000000
    4    3    5    7   14    0.002867    0.000000
    4    3    5    8   14    0.000704    0.000000
    4    3    5    9   14    0.002363    0.000000
    4    3    5   10   14    0.003806   -0.000000
    4    3    5   11   14    0.001018    0.000000
    4    3    5   12   14    0.000697   -0.000000
    4    3    5   13   14    0.000000    0.000000
    4    3    5   14   14   -0.000092   -0.000000
    4    3    5   15   14   -0.000742   -0.000000
    4    3    5   16   14   -0.000000    0.000000
    4    3    5    1   15    0.000937   -0.000000
    4    3    5    2   15    0.001167    0.000000
    4    3    5    3   15    0.000000   -0.000000
    4    3    5    4   15   -0.002285   -0.000000
    4    3    5    5   15    0.000000   -0.000000
    4    3    5    6   15   -0.003193   -0.000000
    4    3    5    7   15   -0.003220   -0.000000
    4    3    5    8   15    0.003054    0.000000
    4    3    5    9   15    0.000425   -0.000000
    4    3    5   10   15    0.000939   -0.000000
    4    3    5   11   15   -0.000153   -0.000000
    4    3    5   12   15    0.004388   -0.000000
    4    3    5   13   15    0.000000    0.000000
    4    3    5   14   15   -0.003932   -0.000000
    4    3    5   15   15   -0.002370    0.000000
    4    3    5   16   15    0.000000   -0.000000
    4    3    5    1   16   -0.000000   -0.000000
    4    3    5    2   16   -0.000000    0.000000
    4    3    5    3   16    0.002012    0.000000
    4    3    5    4   16    0.000000    0.000000
    4    3    5    5   16    0.016679    0.000000
    4    3    5    6   16   -0.002587    0.000000
    4    3    5    7   16    0.001279    0.000000
    4    3    5    8   16   -0.000366   -0.000000
    4    3    5    9   16    0.000053    0.000000
    4    3    5   10   16   -0.002335    0.000000
    4    3    5   11   16   -0.000000    0.000000
    4    3    5   12   16   -0.000000    0.000000
    4    3    5   13   16    0.001135    0.000000
    4    3    5   14   16   -0.000000    0.000000
    4    3    5   15   16   -0.000000    0.000000
    4    3    5   16   16    0.004695   -0.000000
    4    4    6    1    1   -0.001684   -0.000000
    4    4    6    2    1   -0.000000    0.000000
    4    4    6    3    1    0.000000    0.000000
    4    4    6    4    1    0.002127   -0.000000
    4    4    6    5    1   -0.000000    0.000000
    4    4    6    6    1    0.003349   -0.000000
    4    4    6    7    1   -0.000000    0.000000
    4    4    6    8    1    0.001503   -0.000000
    4    4    6    9    1    0.001129   -0.000000
    4    4    6   10    1    0.000000    0.000000
    4    4    6   11    1    0.004165   -0.000000
    4    4    6   12    1   -0.000000    0.000000
    4    4    6   13    1    0.000000   -0.000000
    4    4    6   14    1    0.000146    0.000000
    4    4    6   15    1    0.000374    0.000000
    4    4    6   16    1   -0.000000    0.000000
    4    4    6    1    2    0.000000   -0.000000
    4    4    6    2    2    0.003732   -0.000000
    4    4    6    3    2   -0.000000    0.000000
    4    4    6    4    2   -0.000000   -0.000000
    4    4    6    5    2   -0.000000   -0.000000
    4    4    6    6    2   -0.000000    0.000000
    4    4    6    7    2    0.001297   -0.000000
    4    4    6    8    2    0.000000    0.000000
    4    4    6    9    2    0.000000   -0.000000
    4    4    6   10    2   -0.000669    0.000000
    4    4    6   11    2   -0.000000    0.000000
    4    4    6   12    2   -0.000494    0.000000
    4    4    6   13    2    0.000000   -0.000000
    4    4    6   14    2    0.004557    0.000000
    4    4    6   15    2   -0.000526    0.000000
    4    4    6   16    2    0.000000   -0.000000
    4    4    6    1    3   -0.000000   -0.000000
    4    4    6    2    3   -0.000000   -0.000000
    4    4    6    3    3   -0.006966   -0.000000
    4    4    6    4    3    0.000000    0.000000
    4    4    6    5    3    0.000000    0.000000
    4    4    6    6    3    0.003742    0.000000
    4    4    6    7    3   -0.000000    0.000000
    4    4    6    8    3   -0.000424    0.000000
    4    4    6    9    3   -0.000981   -0.000000
    4    4    6   10    3   -0.000000    0.000000
    4    4    6   11    3    0.000000   -0.000000
    4    4    6   12    3   -0.000000    0.000000
    4    4    6   13    3    0.000920    0.000000
    4    4    6   14    3   -0.000000    0.000000
    4    4    6   15    3    0.000000   -0.000000
    4    4    6   16    3   -0.000964    0.000000
    4    4    6    1    4    0.004368    0.000000
    4    4    6    2    4    0.000000    0.000000
    4    4    6    3    4    0.000000   -0.000000
    4    4    6    4    4    0.000079    0.000000
    4    4    6    5    4   -0.000000   -0.000000
    4    4    6    6    4   -0.002364   -0.000000
    4    4    6    7    4   -0.000000    0.000000
    4    4    6    8    4   -0.002593   -0.000000
    4    4    6    9    4   -0.000799    0.000000
    4    4    6   10    4   -0.000000   -0.000000
    4    4    6   11    4   -0.004214   -0.000000
    4    4    6   12    4   -0.000000   -0.000000
    4    4    6   13    4   -0.000000    0.000000
    4    4    6   14    4   -0.001023   -0.000000
    4    4    6   15    4    0.001097   -0.000000
    4    4    6   16    4    0.000000   -0.000000
    4    4    6    1    5   -0.000000   -0.000000
    4    4    6    2    5    0.000000    0.000000
    4    4    6    3    5   -0.000000   -0.000000
    4    4    6    4    5    0.000000    0.000000
    4    4    6    5    5   -0.005556    0.000000
    4    4    6    6    5   -0.000000    0.000000
    4    4    6    7    5    0.001410    0.000000
    4    4    6    8    5    0.000000   -0.000000
    4    4    6    9    5   -0.000000   -0.000000
    4    4    6   10    5    0.002210    0.000000
    4    4    6   11    5   -0.000000   -0.000000
    4    4    6   12    5   -0.000000    0.000000
    4    4    6   13    5    0.000000   -0.000000
    4    4    6   14    5    0.000000   -0.000000
    4    4    6   15    5   -0.000000   -0.000000
    4    4    6   16    5   -0.001691    0.000000
    4    4    6    1    6    0.001199    0.000000
    4    4    6    2    6   -0.000000   -0.000000
    4    4    6    3    6   -0.003562   -0.000000
    4    4    6    4    6    0.002025    0.000000
    4    4    6    5    6    0.000000   -0.000000
    4    4    6    6    6   -0.001684    0.000000
    4    4    6    7    6    0.000000    0.000000
    4    4    6    8    6   -0.000000   -0.000000
    4    4    6    9    6   -0.002127    0.000000
    4    4    6   10    6    0.000000   -0.000000
    4    4    6   11    6    0.000146    0.000000
    4    4    6   12    6   -0.000000    0.000000
    4    4    6   13    6   -0.000374   -0.000000
    4    4    6   14    6    0.000150   -0.000000
    4    4    6   15    6   -0.000412   -0.000000
    4    4    6   16    6    0.000699    0.000000
    4    4    6    1    7   -0.000000   -0.000000
    4    4    6    2    7    0.001481    0.000000
    4    4    6    3    7    0.000000   -0.000000
    4    4    6    4    7    0.000000   -0.000000
    4    4    6    5    7    0.005538   -0.000000
    4    4    6    6    7   -0.000000   -0.000000
    4    4    6    7    7   -0.006966   -0.000000
    4    4    6    8    7   -0.000000    0.000000
    4    4    6    9    7   -0.000000   -0.000000
    4    4    6   10    7    0.000000    0.000000
    4    4    6   11    7   -0.000000    0.000000
    4    4    6   12    7   -0.000964    0.000000
    4    4    6   13    7   -0.000000    0.000000
    4    4    6   14    7    0.000775   -0.000000
    4    4    6   15    7   -0.000212   -0.000000
    4    4    6   16    7   -0.002061   -0.000000
    4    4    6    1    8    0.003189    0.000000
    4    4    6    2    8   -0.000000   -0.000000
    4    4    6    3    8   -0.005568   -0.000000
    4    4    6    4    8    0.005184    0.000000
    4    4    6    5    8   -0.000000    0.000000
    4    4    6    6    8    0.000000    0.000000
    4    4    6    7    8    0.000000   -0.000000
    4    4    6    8    8    0.003732    0.000000
    4    4    6    9    8   -0.000000   -0.000000
    4    4    6   10    8    0.000000    0.000000
    4    4    6   11    8   -0.004557   -0.000000
    4    4    6   12    8   -0.000000    0.000000
    4    4    6   13    8   -0.000526    0.000000
    4    4    6   14    8   -0.000634    0.000000
    4    4    6   15    8    0.001597   -0.000000
    4    4    6   16    8    0.000580   -0.000000
    4    4    6    1    9    0.002885    0.000000
    4    4    6    2    9    0.000000    0.000000
    4    4    6    3    9    0.008442    0.000000
    4    4    6    4    9    0.002880   -0.000000
    4    4    6    5    9    0.000000    0.000000
    4    4    6    6    9   -0.004368   -0.000000
    4    4    6    7    9   -0.000000    0.000000
    4    4    6    8    9    0.000000    0.000000
    4    4    6    9    9    0.000079   -0.000000
    4    4    6   10    9   -0.000000   -0.000000
    4    4    6   11    9    0.001023    0.000000
    4    4    6   12    9   -0.000000    0.000000
    4    4    6   13    9    0.001097   -0.000000
    4    4    6   14    9    0.000405    0.000000
    4    4    6   15    9    0.000060   -0.000000
    4    4    6   16    9    0.000288    0.000000
    4    4    6    1   10   -0.000000   -0.000000
    4    4    6    2   10    0.000473   -0.000000
    4    4    6    3   10    0.000000   -0.000000
    4    4    6    4   10    0.000000    0.000000
    4    4    6    5   10    0.004407   -0.000000
    4    4    6    6   10    0.000000    0.000000
    4    4    6    7   10    0.000000   -0.000000
    4    4    6    8   10   -0.000000   -0.000000
    4    4    6    9   10    0.000000    0.000000
    4    4    6   10   10   -0.005556   -0.000000
    4    4    6   11   10   -0.000000    0.000000
    4    4    6   12   10    0.001691   -0.000000
    4    4    6   13   10   -0.000000   -0.000000
    4    4    6   14   10   -0.002139    0.000000
    4    4    6   15   10   -0.002010   -0.000000
    4    4    6   16   10    0.002346    0.000000
    4    4    6    1   11   -0.003096    0.000000
    4    4    6    2   11   -0.000000   -0.000000
    4    4    6    3   11   -0.000000    0.000000
    4    4    6    4   11   -0.002361    0.000000
    4    4    6    5   11    0.000000    0.000000
    4    4    6    6   11   -0.001837   -0.000000
    4    4    6    7   11    0.000000   -0.000000
    4    4    6    8   11    0.012572    0.000000
    4    4    6    9   11   -0.002432   -0.000000
    4    4    6   10   11   -0.000000   -0.000000
    4    4    6   11   11   -0.001806    0.000000
    4    4    6   12   11    0.000000   -0.000000
    4    4    6   13   11    0.000000    0.000000
    4    4    6   14   11    0.001646    0.000000
    4    4    6   15   11   -0.000456    0.000000
    4    4    6   16   11   -0.000000   -0.000000
    4    4    6    1   12    0.000000   -0.000000
    4    4    6    2   12   -0.002026   -0.000000
    4    4    6    3   12    0.000000   -0.000000
    4    4    6    4   12    0.000000    0.000000
    4    4    6    5   12    0.000000   -0.000000
    4    4    6    6   12    0.000000   -0.000000
    4    4    6    7   12    0.008917   -0.000000
    4    4    6    8   12   -0.000000   -0.000000
    4    4    6    9   12    0.000000   -0.000000
    4    4    6   10   12    0.009412    0.000000
    4    4    6   11   12    0.000000    0.000000
    4    4    6   12   12   -0.002057   -0.000000
    4    4    6   13   12    0.000000    0.000000
    4    4    6   14   12   -0.001124    0.000000
    4    4    6   15   12    0.009452    0.000000
    4    4    6   16   12   -0.000000   -0.000000
    4    4    6    1   13    0.000000    0.000000
    4    4    6    2   13   -0.000000    0.000000
    4    4    6    3   13   -0.009264   -0.000000
    4    4    6    4   13    0.000000   -0.000000
    4    4    6    5   13   -0.000000    0.000000
    4    4    6    6   13    0.002600    0.000000
    4    4    6    7   13   -0.000000   -0.000000
    4    4    6    8   13    0.003149   -0.000000
    4    4    6    9   13    0.007428    0.000000
    4    4    6   10   13   -0.000000    0.000000
    4    4    6   11   13    0.000000   -0.000000
    4    4    6   12   13   -0.000000   -0.000000
    4    4    6   13   13   -0.004196    0.000000
    4    4    6   14   13   -0.000000   -0.000000
    4    4    6   15   13   -0.000000   -0.000000
    4    4    6   16   13    0.001750    0.000000
    4    4    6    1   14   -0.001837   -0.000000
    4    4    6    2   14   -0.012572   -0.000000
    4    4    6    3   14    0.000000   -0.000000
    4    4    6    4   14    0.002432    0.000000
    4    4    6    5   14   -0.000000    0.000000
    4    4    6    6   14    0.000477    0.000000
    4    4    6    7   14   -0.000062    0.000000
    4    4    6    8   14    0.002816   -0.000000
    4    4    6    9   14    0.000106   -0.000000
    4    4    6   10   14   -0.002447   -0.000000
    4    4    6   11   14    0.000337   -0.000000
    4    4    6   12   14   -0.000653   -0.000000
    4    4    6   13   14   -0.000000    0.000000
    4    4    6   14   14   -0.001806   -0.000000
    4    4    6   15   14   -0.000000   -0.000000
    4    4    6   16   14   -0.000000    0.000000
    4    4    6    1   15   -0.002600   -0.000000
    4    4    6    2   15    0.003149   -0.000000
    4    4    6    3   15    0.000000    0.000000
    4    4    6    4   15    0.007428    0.000000
    4    4    6    5   15   -0.000000    0.000000
    4    4    6    6   15   -0.002180    0.000000
    4    4    6    7   15    0.003104    0.000000
    4    4    6    8   15    0.001446    0.000000
    4    4    6    9   15    0.001500    0.000000
    4    4    6   10   15   -0.003237    0.000000
    4    4    6   11   15   -0.002852   -0.000000
    4    4    6   12   15   -0.001740   -0.000000
    4    4    6   13   15   -0.000000    0.000000
    4    4    6   14   15    0.000000    0.000000
    4    4    6   15   15   -0.004196    0.000000
    4    4    6   16   15    0.000000    0.000000
    4    4    6    1   16    0.000000   -0.000000
    4    4    6    2   16   -0.000000    0.000000
    4    4    6    3   16    0.008917   -0.000000
    4    4    6    4   16   -0.000000    0.000000
    4    4    6    5   16   -0.009412   -0.000000
    4    4    6    6   16    0.001266   -0.000000
    4    4    6    7   16   -0.000184    0.000000
    4    4    6    8   16   -0.001672    0.000000
    4    4    6    9   16    0.000870   -0.000000
    4    4    6   10   16    0.003056   -0.000000
    4    4    6   11   16   -0.000000    0.000000
    4    4    6   12   16   -0.000000    0.000000
    4    4    6   13   16    0.000768   -0.000000
    4    4    6   14   16    0.000000   -0.000000
    4    4    6   15   16   -0.000000   -0.000000
    4    4    6   16   16   -0.002057    0.000000
