 written on 10Jul2025 at 18:57:52 
           8
         545
    2    1    1    1    1    1    1    1    1    1    1    2    2    2    2
    2    1    1    1    2    1    1    1    2    1    1    1    1    1    1
    1    1    1    1    1    1    1    1    1    1    1    1    1    1    1
    4    2    2    2    2    2    2    2    4    1    1    1    1    1    1
    1    1    1    1    1    1    1    1    1    1    1    1    1    1    1
    1    1    1    1    1    1    1    1    1    1    1    1    2    1    1
    1    1    1    1    1    2    1    1    1    1    1    1    1    1    2
    2    2    2    2    1    1    1    1    1    1    1    1    1    1    1
    1    1    1    1    1    1    1    1    1    1    1    1    1    1    1
    1    1    1    1    1    1    1    1    1    1    2    1    1    1    1
    1    1    1    2    1    1    1    1    1    1    1    1    1    1    1
    1    1    1    1    1    1    1    1    2    1    1    1    1    1    1
    1    1    1    1    1    1    1    1    1    1    1    1    1    1    1
    1    1    1    1    1    1    1    1    1    1    1    2    1    1    1
    1    1    1    1    2    1    1    1    1    1    1    1    1    1    1
    1    1    1    1    1    1    1    1    1    1    1    1    1    1    1
    1    2    1    1    1    2    1    1    1    1    1    1    1    1    1
    1    1    1    1    1    1    1    1    1    1    1    1    1    2    1
    1    1    1    1    1    1    2    1    1    1    1    1    1    1    1
    1    1    1    1    1    1    1    1    1    1    1    1    1    1    2
    1    1    1    2    1    1    1    1    1    1    1    1    1    1    1
    1    1    1    1    1    1    1    1    1    1    1    1    1    1    1
    2    1    1    1    1    1    1    1    2    1    1    1    1    1    1
    1    1    1    1    1    1    1    1    1    1    1    1    1    1    1
    1    1    1    1    1    1    1    1    1    1    1    2    1    1    1
    1    1    1    1    1    1    1    1    1    1    1    1    1    1    1
    1    2    1    1    1    1    1    1    1    2    1    1    1    1    1
    1    1    1    1    1    1    1    1    1    1    1    1    1    1    1
    1    1    1    1    1    1    1    1    1    1    1    1    1    1    1
    1    2    2    2    2    2    1    1    1    1    1    1    1    1    2
    1    1    1    1    1    1    1    2    1    1    1    1    1    1    1
    1    1    1    1    1    1    1    1    1    1    1    1    1    1    1
    1    1    1    1    1    1    1    1    1    1    1    4    2    2    2
    2    2    2    2    4    1    1    1    1    1    1    1    1    1    1
    1    1    1    1    1    1    1    1    1    1    1    2    1    1    1
    2    1    1    1    2    2    2    2    2    1    1    1    1    1    1
    1    1    1    1    2
   -6    2    2    1    1   -0.000037    0.000000
   -6    2    2    2    1    0.000336   -0.000000
   -6    2    2    3    1    0.000996   -0.000000
   -6    2    2    4    1   -0.000000    0.000000
   -6    2    2    5    1   -0.000394   -0.000000
   -6    2    2    6    1    0.000048   -0.000000
   -6    2    2    7    1    0.000278   -0.000000
   -6    2    2    8    1   -0.000077    0.000000
   -6    2    2    1    2    0.000223    0.000000
   -6    2    2    2    2    0.003773    0.000000
   -6    2    2    3    2    0.000205   -0.000000
   -6    2    2    4    2    0.000000    0.000000
   -6    2    2    5    2   -0.000048   -0.000000
   -6    2    2    6    2   -0.002519   -0.000000
   -6    2    2    7    2    0.000291   -0.000000
   -6    2    2    8    2    0.001131    0.000000
   -6    2    2    1    3    0.000653    0.000000
   -6    2    2    2    3    0.000210   -0.000000
   -6    2    2    3    3    0.004331    0.000000
   -6    2    2    4    3    0.000000    0.000000
   -6    2    2    5    3   -0.000278   -0.000000
   -6    2    2    6    3    0.000291    0.000000
   -6    2    2    7    3   -0.000296    0.000000
   -6    2    2    8    3   -0.001186    0.000000
   -6    2    2    1    4   -0.000000   -0.000000
   -6    2    2    2    4   -0.000000    0.000000
   -6    2    2    3    4    0.000000    0.000000
   -6    2    2    4    4    0.003708    0.000000
   -6    2    2    5    4    0.000077    0.000000
   -6    2    2    6    4    0.001131   -0.000000
   -6    2    2    7    4   -0.001186   -0.000000
   -6    2    2    8    4   -0.000797    0.000000
   -6    2    2    1    5   -0.000534    0.000000
   -6    2    2    2    5   -0.000118   -0.000000
   -6    2    2    3    5    0.000147   -0.000000
   -6    2    2    4    5   -0.000272    0.000000
   -6    2    2    5    5   -0.000037   -0.000000
   -6    2    2    6    5   -0.000223    0.000000
   -6    2    2    7    5   -0.000653    0.000000
   -6    2    2    8    5    0.000000   -0.000000
   -6    2    2    1    6    0.000118   -0.000000
   -6    2    2    2    6   -0.000951    0.000000
   -6    2    2    3    6    0.000874   -0.000000
   -6    2    2    4    6   -0.000319    0.000000
   -6    2    2    5    6   -0.000336   -0.000000
   -6    2    2    6    6    0.003773   -0.000000
   -6    2    2    7    6    0.000210    0.000000
   -6    2    2    8    6   -0.000000   -0.000000
   -6    2    2    1    7   -0.000147   -0.000000
   -6    2    2    2    7    0.000874    0.000000
   -6    2    2    3    7   -0.000929   -0.000000
   -6    2    2    4    7    0.001373    0.000000
   -6    2    2    5    7   -0.000996   -0.000000
   -6    2    2    6    7    0.000205    0.000000
   -6    2    2    7    7    0.004331   -0.000000
   -6    2    2    8    7    0.000000   -0.000000
   -6    2    2    1    8    0.000272    0.000000
   -6    2    2    2    8   -0.000319   -0.000000
   -6    2    2    3    8    0.001373   -0.000000
   -6    2    2    4    8   -0.002329   -0.000000
   -6    2    2    5    8    0.000000    0.000000
   -6    2    2    6    8    0.000000   -0.000000
   -6    2    2    7    8    0.000000   -0.000000
   -6    2    2    8    8    0.003708   -0.000000
   -5   -1    3    1    1   -0.000052   -0.000000
   -5   -1    3    2    1   -0.000135    0.000000
   -5   -1    3    3    1   -0.000076    0.000000
   -5   -1    3    4    1    0.000181   -0.000000
   -5   -1    3    5    1    0.000570    0.000000
   -5   -1    3    6    1    0.000086   -0.000000
   -5   -1    3    7    1    0.000726   -0.000000
   -5   -1    3    8    1   -0.000198   -0.000000
   -5   -1    3    1    2    0.000291    0.000000
   -5   -1    3    2    2   -0.001826    0.000000
   -5   -1    3    3    2   -0.001285    0.000000
   -5   -1    3    4    2    0.000163    0.000000
   -5   -1    3    5    2   -0.000086   -0.000000
   -5   -1    3    6    2   -0.000251    0.000000
   -5   -1    3    7    2   -0.000615   -0.000000
   -5   -1    3    8    2   -0.000347   -0.000000
   -5   -1    3    1    3   -0.000262   -0.000000
   -5   -1    3    2    3   -0.001330   -0.000000
   -5   -1    3    3    3   -0.001793    0.000000
   -5   -1    3    4    3    0.001909    0.000000
   -5   -1    3    5    3   -0.000726   -0.000000
   -5   -1    3    6    3   -0.000615    0.000000
   -5   -1    3    7    3    0.001133   -0.000000
   -5   -1    3    8    3    0.000716   -0.000000
   -5   -1    3    1    4   -0.000617   -0.000000
   -5   -1    3    2    4    0.000137    0.000000
   -5   -1    3    3    4    0.001834   -0.000000
   -5   -1    3    4    4   -0.000512   -0.000000
   -5   -1    3    5    4    0.000198   -0.000000
   -5   -1    3    6    4   -0.000347    0.000000
   -5   -1    3    7    4    0.000716    0.000000
   -5   -1    3    8    4    0.003585    0.000000
   -5   -1    3    1    5   -0.000104   -0.000000
   -5   -1    3    2    5    0.000176    0.000000
   -5   -1    3    3    5   -0.000091   -0.000000
   -5   -1    3    4    5    0.000274   -0.000000
   -5   -1    3    5    5   -0.000052    0.000000
   -5   -1    3    6    5   -0.000291    0.000000
   -5   -1    3    7    5    0.000262   -0.000000
   -5   -1    3    8    5    0.000617   -0.000000
   -5   -1    3    1    6   -0.000176    0.000000
   -5   -1    3    2    6    0.001267   -0.000000
   -5   -1    3    3    6    0.000439    0.000000
   -5   -1    3    4    6    0.000173   -0.000000
   -5   -1    3    5    6    0.000135    0.000000
   -5   -1    3    6    6   -0.001826   -0.000000
   -5   -1    3    7    6   -0.001330    0.000000
   -5   -1    3    8    6    0.000137   -0.000000
   -5   -1    3    1    7    0.000091   -0.000000
   -5   -1    3    2    7    0.000439   -0.000000
   -5   -1    3    3    7   -0.004470    0.000000
   -5   -1    3    4    7    0.000903   -0.000000
   -5   -1    3    5    7    0.000076    0.000000
   -5   -1    3    6    7   -0.001285   -0.000000
   -5   -1    3    7    7   -0.001793   -0.000000
   -5   -1    3    8    7    0.001834    0.000000
   -5   -1    3    1    8   -0.000274   -0.000000
   -5   -1    3    2    8    0.000173    0.000000
   -5   -1    3    3    8    0.000903    0.000000
   -5   -1    3    4    8   -0.003084   -0.000000
   -5   -1    3    5    8   -0.000181   -0.000000
   -5   -1    3    6    8    0.000163   -0.000000
   -5   -1    3    7    8    0.001909   -0.000000
   -5   -1    3    8    8   -0.000512    0.000000
   -5    0    2    1    1   -0.000097   -0.000000
   -5    0    2    2    1    0.000852    0.000000
   -5    0    2    3    1    0.000696   -0.000000
   -5    0    2    4    1   -0.000236   -0.000000
   -5    0    2    5    1   -0.000783    0.000000
   -5    0    2    6    1    0.000029    0.000000
   -5    0    2    7    1    0.000482    0.000000
   -5    0    2    8    1    0.000220   -0.000000
   -5    0    2    1    2   -0.000122   -0.000000
   -5    0    2    2    2    0.000337   -0.000000
   -5    0    2    3    2   -0.001829   -0.000000
   -5    0    2    4    2   -0.000818   -0.000000
   -5    0    2    5    2   -0.000029    0.000000
   -5    0    2    6    2   -0.002129   -0.000000
   -5    0    2    7    2    0.000648   -0.000000
   -5    0    2    8    2   -0.002678   -0.000000
   -5    0    2    1    3    0.000761    0.000000
   -5    0    2    2    3   -0.000689    0.000000
   -5    0    2    3    3   -0.001687    0.000000
   -5    0    2    4    3   -0.001821   -0.000000
   -5    0    2    5    3   -0.000482    0.000000
   -5    0    2    6    3    0.000648    0.000000
   -5    0    2    7    3   -0.002702   -0.000000
   -5    0    2    8    3   -0.000351   -0.000000
   -5    0    2    1    4    0.000513   -0.000000
   -5    0    2    2    4   -0.000835   -0.000000
   -5    0    2    3    4    0.000726   -0.000000
   -5    0    2    4    4   -0.000322   -0.000000
   -5    0    2    5    4   -0.000220   -0.000000
   -5    0    2    6    4   -0.002678    0.000000
   -5    0    2    7    4   -0.000351    0.000000
   -5    0    2    8    4    0.000207   -0.000000
   -5    0    2    1    5   -0.000090   -0.000000
   -5    0    2    2    5    0.000108    0.000000
   -5    0    2    3    5   -0.000650   -0.000000
   -5    0    2    4    5   -0.000701    0.000000
   -5    0    2    5    5   -0.000097    0.000000
   -5    0    2    6    5    0.000122   -0.000000
   -5    0    2    7    5   -0.000761    0.000000
   -5    0    2    8    5   -0.000513   -0.000000
   -5    0    2    1    6   -0.000108    0.000000
   -5    0    2    2    6   -0.002712    0.000000
   -5    0    2    3    6   -0.000548   -0.000000
   -5    0    2    4    6    0.000080   -0.000000
   -5    0    2    5    6   -0.000852    0.000000
   -5    0    2    6    6    0.000337    0.000000
   -5    0    2    7    6   -0.000689   -0.000000
   -5    0    2    8    6   -0.000835    0.000000
   -5    0    2    1    7    0.000650   -0.000000
   -5    0    2    2    7   -0.000548    0.000000
   -5    0    2    3    7    0.000115    0.000000
   -5    0    2    4    7   -0.000528   -0.000000
   -5    0    2    5    7   -0.000696   -0.000000
   -5    0    2    6    7   -0.001829    0.000000
   -5    0    2    7    7   -0.001687   -0.000000
   -5    0    2    8    7    0.000726    0.000000
   -5    0    2    1    8    0.000701    0.000000
   -5    0    2    2    8    0.000080    0.000000
   -5    0    2    3    8   -0.000528    0.000000
   -5    0    2    4    8   -0.000124    0.000000
   -5    0    2    5    8    0.000236   -0.000000
   -5    0    2    6    8   -0.000818    0.000000
   -5    0    2    7    8   -0.001821    0.000000
   -5    0    2    8    8   -0.000322    0.000000
   -5    0    3    1    1    0.000147   -0.000000
   -5    0    3    2    1   -0.000600    0.000000
   -5    0    3    3    1   -0.000928    0.000000
   -5    0    3    4    1    0.000473   -0.000000
   -5    0    3    5    1    0.000252   -0.000000
   -5    0    3    6    1   -0.000529   -0.000000
   -5    0    3    7    1    0.000082    0.000000
   -5    0    3    8    1   -0.000111   -0.000000
   -5    0    3    1    2    0.000009    0.000000
   -5    0    3    2    2    0.001993    0.000000
   -5    0    3    3    2    0.000586    0.000000
   -5    0    3    4    2    0.002155   -0.000000
   -5    0    3    5    2    0.000529   -0.000000
   -5    0    3    6    2    0.000383    0.000000
   -5    0    3    7    2    0.001513    0.000000
   -5    0    3    8    2   -0.001596    0.000000
   -5    0    3    1    3    0.000215    0.000000
   -5    0    3    2    3   -0.000630   -0.000000
   -5    0    3    3    3    0.002543    0.000000
   -5    0    3    4    3    0.000732    0.000000
   -5    0    3    5    3   -0.000082    0.000000
   -5    0    3    6    3    0.001513   -0.000000
   -5    0    3    7    3    0.000874    0.000000
   -5    0    3    8    3    0.000152    0.000000
   -5    0    3    1    4    0.000101   -0.000000
   -5    0    3    2    4    0.001481   -0.000000
   -5    0    3    3    4   -0.001276   -0.000000
   -5    0    3    4    4   -0.000033    0.000000
   -5    0    3    5    4    0.000111   -0.000000
   -5    0    3    6    4   -0.001596   -0.000000
   -5    0    3    7    4    0.000152   -0.000000
   -5    0    3    8    4   -0.002630   -0.000000
   -5    0    3    1    5   -0.000013    0.000000
   -5    0    3    2    5   -0.000048    0.000000
   -5    0    3    3    5    0.000711   -0.000000
   -5    0    3    4    5   -0.000034    0.000000
   -5    0    3    5    5    0.000147    0.000000
   -5    0    3    6    5   -0.000009    0.000000
   -5    0    3    7    5   -0.000215    0.000000
   -5    0    3    8    5   -0.000101   -0.000000
   -5    0    3    1    6    0.000048    0.000000
   -5    0    3    2    6    0.002708   -0.000000
   -5    0    3    3    6    0.002794    0.000000
   -5    0    3    4    6   -0.001106    0.000000
   -5    0    3    5    6    0.000600    0.000000
   -5    0    3    6    6    0.001993   -0.000000
   -5    0    3    7    6   -0.000630    0.000000
   -5    0    3    8    6    0.001481    0.000000
   -5    0    3    1    7   -0.000711   -0.000000
   -5    0    3    2    7    0.002794   -0.000000
   -5    0    3    3    7    0.002477   -0.000000
   -5    0    3    4    7   -0.000249   -0.000000
   -5    0    3    5    7    0.000928    0.000000
   -5    0    3    6    7    0.000586   -0.000000
   -5    0    3    7    7    0.002543   -0.000000
   -5    0    3    8    7   -0.001276    0.000000
   -5    0    3    1    8    0.000034    0.000000
   -5    0    3    2    8   -0.001106   -0.000000
   -5    0    3    3    8   -0.000249    0.000000
   -5    0    3    4    8    0.002944    0.000000
   -5    0    3    5    8   -0.000473   -0.000000
   -5    0    3    6    8    0.002155    0.000000
   -5    0    3    7    8    0.000732   -0.000000
   -5    0    3    8    8   -0.000033   -0.000000
   -5    1    1    1    1    0.000060    0.000000
   -5    1    1    2    1   -0.000179    0.000000
   -5    1    1    3    1    0.000552    0.000000
   -5    1    1    4    1   -0.000596   -0.000000
   -5    1    1    5    1    0.000326    0.000000
   -5    1    1    6    1    0.000079   -0.000000
   -5    1    1    7    1    0.000459    0.000000
   -5    1    1    8    1   -0.000123   -0.000000
   -5    1    1    1    2    0.000223   -0.000000
   -5    1    1    2    2   -0.000481    0.000000
   -5    1    1    3    2    0.000437    0.000000
   -5    1    1    4    2    0.000343    0.000000
   -5    1    1    5    2   -0.000079   -0.000000
   -5    1    1    6    2    0.000680    0.000000
   -5    1    1    7    2    0.001269   -0.000000
   -5    1    1    8    2    0.002169    0.000000
   -5    1    1    1    3    0.000611    0.000000
   -5    1    1    2    3   -0.001146   -0.000000
   -5    1    1    3    3   -0.000824   -0.000000
   -5    1    1    4    3   -0.001890   -0.000000
   -5    1    1    5    3   -0.000459    0.000000
   -5    1    1    6    3    0.001269    0.000000
   -5    1    1    7    3   -0.004431   -0.000000
   -5    1    1    8    3    0.003943    0.000000
   -5    1    1    1    4    0.000027   -0.000000
   -5    1    1    2    4    0.001220    0.000000
   -5    1    1    3    4    0.000716    0.000000
   -5    1    1    4    4    0.000774    0.000000
   -5    1    1    5    4    0.000123   -0.000000
   -5    1    1    6    4    0.002169   -0.000000
   -5    1    1    7    4    0.003943   -0.000000
   -5    1    1    8    4    0.000311    0.000000
   -5    1    1    1    5   -0.000156   -0.000000
   -5    1    1    2    5   -0.000273    0.000000
   -5    1    1    3    5   -0.000462   -0.000000
   -5    1    1    4    5   -0.000191    0.000000
   -5    1    1    5    5    0.000060   -0.000000
   -5    1    1    6    5   -0.000223   -0.000000
   -5    1    1    7    5   -0.000611    0.000000
   -5    1    1    8    5   -0.000027   -0.000000
   -5    1    1    1    6    0.000273    0.000000
   -5    1    1    2    6    0.001661   -0.000000
   -5    1    1    3    6    0.000148   -0.000000
   -5    1    1    4    6    0.001998    0.000000
   -5    1    1    5    6    0.000179    0.000000
   -5    1    1    6    6   -0.000481   -0.000000
   -5    1    1    7    6   -0.001146    0.000000
   -5    1    1    8    6    0.001220   -0.000000
   -5    1    1    1    7    0.000462   -0.000000
   -5    1    1    2    7    0.000148    0.000000
   -5    1    1    3    7    0.002109    0.000000
   -5    1    1    4    7   -0.000712    0.000000
   -5    1    1    5    7   -0.000552    0.000000
   -5    1    1    6    7    0.000437   -0.000000
   -5    1    1    7    7   -0.000824    0.000000
   -5    1    1    8    7    0.000716   -0.000000
   -5    1    1    1    8    0.000191    0.000000
   -5    1    1    2    8    0.001998   -0.000000
   -5    1    1    3    8   -0.000712   -0.000000
   -5    1    1    4    8    0.004062   -0.000000
   -5    1    1    5    8    0.000596   -0.000000
   -5    1    1    6    8    0.000343   -0.000000
   -5    1    1    7    8   -0.001890    0.000000
   -5    1    1    8    8    0.000774   -0.000000
   -5    1    2    1    1    0.000087   -0.000000
   -5    1    2    2    1    0.000325    0.000000
   -5    1    2    3    1   -0.000010   -0.000000
   -5    1    2    4    1   -0.000294    0.000000
   -5    1    2    5    1   -0.000394   -0.000000
   -5    1    2    6    1    0.000048   -0.000000
   -5    1    2    7    1    0.000278   -0.000000
   -5    1    2    8    1    0.000077   -0.000000
   -5    1    2    1    2    0.000496    0.000000
   -5    1    2    2    2   -0.000711    0.000000
   -5    1    2    3    2   -0.001109    0.000000
   -5    1    2    4    2    0.000882    0.000000
   -5    1    2    5    2   -0.000048   -0.000000
   -5    1    2    6    2   -0.002519   -0.000000
   -5    1    2    7    2    0.000291   -0.000000
   -5    1    2    8    2   -0.001131   -0.000000
   -5    1    2    1    3   -0.000859    0.000000
   -5    1    2    2    3   -0.001574    0.000000
   -5    1    2    3    3    0.001112   -0.000000
   -5    1    2    4    3   -0.000492   -0.000000
   -5    1    2    5    3   -0.000278   -0.000000
   -5    1    2    6    3    0.000291    0.000000
   -5    1    2    7    3   -0.000296    0.000000
   -5    1    2    8    3    0.001186   -0.000000
   -5    1    2    1    4    0.000581    0.000000
   -5    1    2    2    4    0.000022   -0.000000
   -5    1    2    3    4    0.001013    0.000000
   -5    1    2    4    4    0.000012   -0.000000
   -5    1    2    5    4   -0.000077   -0.000000
   -5    1    2    6    4   -0.001131    0.000000
   -5    1    2    7    4    0.001186    0.000000
   -5    1    2    8    4   -0.000797   -0.000000
   -5    1    2    1    5   -0.000189    0.000000
   -5    1    2    2    5    0.000065    0.000000
   -5    1    2    3    5    0.000202    0.000000
   -5    1    2    4    5    0.000176    0.000000
   -5    1    2    5    5    0.000087    0.000000
   -5    1    2    6    5   -0.000496    0.000000
   -5    1    2    7    5    0.000859    0.000000
   -5    1    2    8    5   -0.000581    0.000000
   -5    1    2    1    6   -0.000065    0.000000
   -5    1    2    2    6   -0.002351    0.000000
   -5    1    2    3    6    0.000281    0.000000
   -5    1    2    4    6    0.001586   -0.000000
   -5    1    2    5    6   -0.000325    0.000000
   -5    1    2    6    6   -0.000711   -0.000000
   -5    1    2    7    6   -0.001574   -0.000000
   -5    1    2    8    6    0.000022    0.000000
   -5    1    2    1    7   -0.000202    0.000000
   -5    1    2    2    7    0.000281   -0.000000
   -5    1    2    3    7   -0.000283   -0.000000
   -5    1    2    4    7   -0.000329   -0.000000
   -5    1    2    5    7    0.000010    0.000000
   -5    1    2    6    7   -0.001109   -0.000000
   -5    1    2    7    7    0.001112    0.000000
   -5    1    2    8    7    0.001013   -0.000000
   -5    1    2    1    8   -0.000176    0.000000
   -5    1    2    2    8    0.001586    0.000000
   -5    1    2    3    8   -0.000329    0.000000
   -5    1    2    4    8    0.002945    0.000000
   -5    1    2    5    8    0.000294    0.000000
   -5    1    2    6    8    0.000882   -0.000000
   -5    1    2    7    8   -0.000492    0.000000
   -5    1    2    8    8    0.000012    0.000000
   -5    1    3    1    1    0.000066    0.000000
   -5    1    3    2    1   -0.000388   -0.000000
   -5    1    3    3    1   -0.000650   -0.000000
   -5    1    3    4    1    0.000274   -0.000000
   -5    1    3    5    1   -0.000164    0.000000
   -5    1    3    6    1   -0.000616    0.000000
   -5    1    3    7    1    0.000115    0.000000
   -5    1    3    8    1   -0.000474    0.000000
   -5    1    3    1    2   -0.000173   -0.000000
   -5    1    3    2    2    0.001397    0.000000
   -5    1    3    3    2   -0.000501    0.000000
   -5    1    3    4    2   -0.000236    0.000000
   -5    1    3    5    2    0.000616    0.000000
   -5    1    3    6    2   -0.000860    0.000000
   -5    1    3    7    2    0.000797    0.000000
   -5    1    3    8    2   -0.000899   -0.000000
   -5    1    3    1    3   -0.000136   -0.000000
   -5    1    3    2    3    0.000522   -0.000000
   -5    1    3    3    3    0.001256   -0.000000
   -5    1    3    4    3   -0.000950    0.000000
   -5    1    3    5    3   -0.000115    0.000000
   -5    1    3    6    3    0.000797   -0.000000
   -5    1    3    7    3    0.001036   -0.000000
   -5    1    3    8    3   -0.001746    0.000000
   -5    1    3    1    4    0.000207   -0.000000
   -5    1    3    2    4    0.000325   -0.000000
   -5    1    3    3    4    0.000727   -0.000000
   -5    1    3    4    4    0.001292    0.000000
   -5    1    3    5    4    0.000474    0.000000
   -5    1    3    6    4   -0.000899    0.000000
   -5    1    3    7    4   -0.001746   -0.000000
   -5    1    3    8    4   -0.001066    0.000000
   -5    1    3    1    5    0.000045   -0.000000
   -5    1    3    2    5    0.000707    0.000000
   -5    1    3    3    5   -0.000030   -0.000000
   -5    1    3    4    5    0.000335    0.000000
   -5    1    3    5    5    0.000066   -0.000000
   -5    1    3    6    5    0.000173   -0.000000
   -5    1    3    7    5    0.000136   -0.000000
   -5    1    3    8    5   -0.000207   -0.000000
   -5    1    3    1    6   -0.000707    0.000000
   -5    1    3    2    6    0.000013   -0.000000
   -5    1    3    3    6   -0.000225    0.000000
   -5    1    3    4    6   -0.001985   -0.000000
   -5    1    3    5    6    0.000388   -0.000000
   -5    1    3    6    6    0.001397   -0.000000
   -5    1    3    7    6    0.000522    0.000000
   -5    1    3    8    6    0.000325    0.000000
   -5    1    3    1    7    0.000030   -0.000000
   -5    1    3    2    7   -0.000225   -0.000000
   -5    1    3    3    7   -0.001601    0.000000
   -5    1    3    4    7    0.000433    0.000000
   -5    1    3    5    7    0.000650   -0.000000
   -5    1    3    6    7   -0.000501   -0.000000
   -5    1    3    7    7    0.001256    0.000000
   -5    1    3    8    7    0.000727    0.000000
   -5    1    3    1    8   -0.000335    0.000000
   -5    1    3    2    8   -0.001985    0.000000
   -5    1    3    3    8    0.000433   -0.000000
   -5    1    3    4    8   -0.000678   -0.000000
   -5    1    3    5    8   -0.000274   -0.000000
   -5    1    3    6    8   -0.000236   -0.000000
   -5    1    3    7    8   -0.000950   -0.000000
   -5    1    3    8    8    0.001292   -0.000000
   -5    2    0    1    1   -0.000098   -0.000000
   -5    2    0    2    1   -0.000178   -0.000000
   -5    2    0    3    1    0.001042    0.000000
   -5    2    0    4    1    0.000389    0.000000
   -5    2    0    5    1   -0.000785    0.000000
   -5    2    0    6    1    0.000390   -0.000000
   -5    2    0    7    1    0.000361    0.000000
   -5    2    0    8    1    0.000000   -0.000000
   -5    2    0    1    2    0.000811    0.000000
   -5    2    0    2    2   -0.000071   -0.000000
   -5    2    0    3    2    0.000110    0.000000
   -5    2    0    4    2   -0.001439   -0.000000
   -5    2    0    5    2   -0.000390   -0.000000
   -5    2    0    6    2    0.000366   -0.000000
   -5    2    0    7    2   -0.002255    0.000000
   -5    2    0    8    2   -0.000000    0.000000
   -5    2    0    1    3    0.000447    0.000000
   -5    2    0    2    3   -0.002543   -0.000000
   -5    2    0    3    3   -0.001662    0.000000
   -5    2    0    4    3   -0.000408    0.000000
   -5    2    0    5    3   -0.000361    0.000000
   -5    2    0    6    3   -0.002255   -0.000000
   -5    2    0    7    3   -0.001011   -0.000000
   -5    2    0    8    3   -0.000000   -0.000000
   -5    2    0    1    4   -0.000053   -0.000000
   -5    2    0    2    4   -0.000583   -0.000000
   -5    2    0    3    4   -0.000461   -0.000000
   -5    2    0    4    4    0.000063   -0.000000
   -5    2    0    5    4   -0.000000   -0.000000
   -5    2    0    6    4   -0.000000   -0.000000
   -5    2    0    7    4   -0.000000    0.000000
   -5    2    0    8    4   -0.003978   -0.000000
   -5    2    0    1    5   -0.000089   -0.000000
   -5    2    0    2    5   -0.000912   -0.000000
   -5    2    0    3    5   -0.000310   -0.000000
   -5    2    0    4    5   -0.000082    0.000000
   -5    2    0    5    5   -0.000098    0.000000
   -5    2    0    6    5   -0.000811    0.000000
   -5    2    0    7    5   -0.000447    0.000000
   -5    2    0    8    5    0.000053   -0.000000
   -5    2    0    1    6    0.000912   -0.000000
   -5    2    0    2    6   -0.000646    0.000000
   -5    2    0    3    6    0.000289    0.000000
   -5    2    0    4    6    0.000498   -0.000000
   -5    2    0    5    6    0.000178   -0.000000
   -5    2    0    6    6   -0.000071    0.000000
   -5    2    0    7    6   -0.002543    0.000000
   -5    2    0    8    6   -0.000583    0.000000
   -5    2    0    1    7    0.000310   -0.000000
   -5    2    0    2    7    0.000289   -0.000000
   -5    2    0    3    7   -0.000674    0.000000
   -5    2    0    4    7   -0.001601    0.000000
   -5    2    0    5    7   -0.001042    0.000000
   -5    2    0    6    7    0.000110   -0.000000
   -5    2    0    7    7   -0.001662   -0.000000
   -5    2    0    8    7   -0.000461    0.000000
   -5    2    0    1    8    0.000082    0.000000
   -5    2    0    2    8    0.000498    0.000000
   -5    2    0    3    8   -0.001601   -0.000000
   -5    2    0    4    8   -0.001393    0.000000
   -5    2    0    5    8   -0.000389    0.000000
   -5    2    0    6    8   -0.001439    0.000000
   -5    2    0    7    8   -0.000408   -0.000000
   -5    2    0    8    8    0.000063    0.000000
   -5    2    1    1    1    0.000087   -0.000000
   -5    2    1    2    1   -0.000356    0.000000
   -5    2    1    3    1    0.000219    0.000000
   -5    2    1    4    1    0.000121    0.000000
   -5    2    1    5    1   -0.000394   -0.000000
   -5    2    1    6    1    0.000170   -0.000000
   -5    2    1    7    1    0.000238   -0.000000
   -5    2    1    8    1   -0.000000    0.000000
   -5    2    1    1    2   -0.000086    0.000000
   -5    2    1    2    2    0.000516   -0.000000
   -5    2    1    3    2    0.001396    0.000000
   -5    2    1    4    2   -0.001102   -0.000000
   -5    2    1    5    2   -0.000170   -0.000000
   -5    2    1    6    2    0.000534    0.000000
   -5    2    1    7    2    0.000583    0.000000
   -5    2    1    8    2   -0.000000   -0.000000
   -5    2    1    1    3   -0.000663    0.000000
   -5    2    1    2    3    0.000632   -0.000000
   -5    2    1    3    3   -0.000620    0.000000
   -5    2    1    4    3   -0.001418    0.000000
   -5    2    1    5    3   -0.000238   -0.000000
   -5    2    1    6    3    0.000583   -0.000000
   -5    2    1    7    3   -0.000838    0.000000
   -5    2    1    8    3    0.000000   -0.000000
   -5    2    1    1    4    0.000937    0.000000
   -5    2    1    2    4    0.000434    0.000000
   -5    2    1    3    4   -0.000905   -0.000000
   -5    2    1    4    4    0.000517    0.000000
   -5    2    1    5    4    0.000000    0.000000
   -5    2    1    6    4   -0.000000    0.000000
   -5    2    1    7    4    0.000000    0.000000
   -5    2    1    8    4   -0.003301   -0.000000
   -5    2    1    1    5   -0.000191    0.000000
   -5    2    1    2    5    0.000212    0.000000
   -5    2    1    3    5    0.000150    0.000000
   -5    2    1    4    5    0.000084    0.000000
   -5    2    1    5    5    0.000087    0.000000
   -5    2    1    6    5    0.000086    0.000000
   -5    2    1    7    5    0.000663    0.000000
   -5    2    1    8    5   -0.000937    0.000000
   -5    2    1    1    6   -0.000212    0.000000
   -5    2    1    2    6    0.000400   -0.000000
   -5    2    1    3    6    0.000125    0.000000
   -5    2    1    4    6    0.002838   -0.000000
   -5    2    1    5    6    0.000356    0.000000
   -5    2    1    6    6    0.000516    0.000000
   -5    2    1    7    6    0.000632    0.000000
   -5    2    1    8    6    0.000434   -0.000000
   -5    2    1    1    7   -0.000150    0.000000
   -5    2    1    2    7    0.000125   -0.000000
   -5    2    1    3    7   -0.000485   -0.000000
   -5    2    1    4    7   -0.001228   -0.000000
   -5    2    1    5    7   -0.000219    0.000000
   -5    2    1    6    7    0.001396   -0.000000
   -5    2    1    7    7   -0.000620   -0.000000
   -5    2    1    8    7   -0.000905    0.000000
   -5    2    1    1    8   -0.000084    0.000000
   -5    2    1    2    8    0.002838    0.000000
   -5    2    1    3    8   -0.001228    0.000000
   -5    2    1    4    8    0.000406    0.000000
   -5    2    1    5    8   -0.000121    0.000000
   -5    2    1    6    8   -0.001102    0.000000
   -5    2    1    7    8   -0.001418   -0.000000
   -5    2    1    8    8    0.000517   -0.000000
   -5    2    2    1    1    0.000018   -0.000000
   -5    2    2    2    1   -0.000163   -0.000000
   -5    2    2    3    1   -0.000635   -0.000000
   -5    2    2    4    1    0.000082    0.000000
   -5    2    2    5    1    0.000044    0.000000
   -5    2    2    6    1    0.000039   -0.000000
   -5    2    2    7    1    0.000117   -0.000000
   -5    2    2    8    1    0.000000   -0.000000
   -5    2    2    1    2    0.000177   -0.000000
   -5    2    2    2    2    0.001284   -0.000000
   -5    2    2    3    2    0.001607   -0.000000
   -5    2    2    4    2    0.000881    0.000000
   -5    2    2    5    2   -0.000039   -0.000000
   -5    2    2    6    2    0.002379   -0.000000
   -5    2    2    7    2   -0.000365   -0.000000
   -5    2    2    8    2   -0.000000   -0.000000
   -5    2    2    1    3   -0.000234   -0.000000
   -5    2    2    2    3    0.000266    0.000000
   -5    2    2    3    3    0.001478   -0.000000
   -5    2    2    4    3   -0.000276    0.000000
   -5    2    2    5    3   -0.000117   -0.000000
   -5    2    2    6    3   -0.000365   -0.000000
   -5    2    2    7    3    0.001413   -0.000000
   -5    2    2    8    3   -0.000000    0.000000
   -5    2    2    1    4    0.000417   -0.000000
   -5    2    2    2    4    0.001623   -0.000000
   -5    2    2    3    4    0.001937   -0.000000
   -5    2    2    4    4    0.001794    0.000000
   -5    2    2    5    4   -0.000000   -0.000000
   -5    2    2    6    4   -0.000000    0.000000
   -5    2    2    7    4   -0.000000   -0.000000
   -5    2    2    8    4    0.002499   -0.000000
   -5    2    2    1    5    0.000270   -0.000000
   -5    2    2    2    5    0.000168   -0.000000
   -5    2    2    3    5   -0.000072   -0.000000
   -5    2    2    4    5    0.000314   -0.000000
   -5    2    2    5    5    0.000018    0.000000
   -5    2    2    6    5   -0.000177   -0.000000
   -5    2    2    7    5    0.000234   -0.000000
   -5    2    2    8    5   -0.000417   -0.000000
   -5    2    2    1    6   -0.000168   -0.000000
   -5    2    2    2    6    0.000708    0.000000
   -5    2    2    3    6    0.000430    0.000000
   -5    2    2    4    6    0.001275   -0.000000
   -5    2    2    5    6    0.000163   -0.000000
   -5    2    2    6    6    0.001284    0.000000
   -5    2    2    7    6    0.000266   -0.000000
   -5    2    2    8    6    0.001623    0.000000
   -5    2    2    1    7    0.000072   -0.000000
   -5    2    2    2    7    0.000430   -0.000000
   -5    2    2    3    7    0.003027    0.000000
   -5    2    2    4    7   -0.001093   -0.000000
   -5    2    2    5    7    0.000635   -0.000000
   -5    2    2    6    7    0.001607    0.000000
   -5    2    2    7    7    0.001478    0.000000
   -5    2    2    8    7    0.001937    0.000000
   -5    2    2    1    8   -0.000314   -0.000000
   -5    2    2    2    8    0.001275    0.000000
   -5    2    2    3    8   -0.001093    0.000000
   -5    2    2    4    8    0.002478    0.000000
   -5    2    2    5    8   -0.000082    0.000000
   -5    2    2    6    8    0.000881   -0.000000
   -5    2    2    7    8   -0.000276   -0.000000
   -5    2    2    8    8    0.001794   -0.000000
   -5    2    3    1    1    0.000115    0.000000
   -5    2    3    2    1    0.000159    0.000000
   -5    2    3    3    1    0.000791   -0.000000
   -5    2    3    4    1    0.000177   -0.000000
   -5    2    3    5    1    0.000102   -0.000000
   -5    2    3    6    1   -0.000345   -0.000000
   -5    2    3    7    1   -0.000441    0.000000
   -5    2    3    8    1   -0.000000    0.000000
   -5    2    3    1    2    0.000309   -0.000000
   -5    2    3    2    2    0.002602    0.000000
   -5    2    3    3    2   -0.000162   -0.000000
   -5    2    3    4    2    0.001239   -0.000000
   -5    2    3    5    2    0.000345   -0.000000
   -5    2    3    6    2    0.000141    0.000000
   -5    2    3    7    2    0.000091   -0.000000
   -5    2    3    8    2    0.000000    0.000000
   -5    2    3    1    3   -0.000186   -0.000000
   -5    2    3    2    3   -0.000617    0.000000
   -5    2    3    3    3    0.001141   -0.000000
   -5    2    3    4    3   -0.000239   -0.000000
   -5    2    3    5    3    0.000441    0.000000
   -5    2    3    6    3    0.000091    0.000000
   -5    2    3    7    3    0.001799    0.000000
   -5    2    3    8    3    0.000000   -0.000000
   -5    2    3    1    4   -0.000613    0.000000
   -5    2    3    2    4    0.000988    0.000000
   -5    2    3    3    4   -0.000992    0.000000
   -5    2    3    4    4    0.001238   -0.000000
   -5    2    3    5    4    0.000000    0.000000
   -5    2    3    6    4    0.000000   -0.000000
   -5    2    3    7    4    0.000000    0.000000
   -5    2    3    8    4    0.003820   -0.000000
   -5    2    3    1    5   -0.000016    0.000000
   -5    2    3    2    5    0.000335   -0.000000
   -5    2    3    3    5   -0.000057    0.000000
   -5    2    3    4    5    0.000387    0.000000
   -5    2    3    5    5    0.000115   -0.000000
   -5    2    3    6    5   -0.000309   -0.000000
   -5    2    3    7    5    0.000186   -0.000000
   -5    2    3    8    5    0.000613    0.000000
   -5    2    3    1    6   -0.000335   -0.000000
   -5    2    3    2    6   -0.001164   -0.000000
   -5    2    3    3    6   -0.000765   -0.000000
   -5    2    3    4    6   -0.002089   -0.000000
   -5    2    3    5    6   -0.000159    0.000000
   -5    2    3    6    6    0.002602   -0.000000
   -5    2    3    7    6   -0.000617   -0.000000
   -5    2    3    8    6    0.000988   -0.000000
   -5    2    3    1    7    0.000057    0.000000
   -5    2    3    2    7   -0.000765   -0.000000
   -5    2    3    3    7   -0.003145   -0.000000
   -5    2    3    4    7   -0.000106    0.000000
   -5    2    3    5    7   -0.000791   -0.000000
   -5    2    3    6    7   -0.000162    0.000000
   -5    2    3    7    7    0.001141    0.000000
   -5    2    3    8    7   -0.000992   -0.000000
   -5    2    3    1    8   -0.000387    0.000000
   -5    2    3    2    8   -0.002089    0.000000
   -5    2    3    3    8   -0.000106   -0.000000
   -5    2    3    4    8   -0.001826    0.000000
   -5    2    3    5    8   -0.000177   -0.000000
   -5    2    3    6    8    0.001239    0.000000
   -5    2    3    7    8   -0.000239    0.000000
   -5    2    3    8    8    0.001238    0.000000
   -5    3   -1    1    1   -0.000050   -0.000000
   -5    3   -1    2    1    0.000166   -0.000000
   -5    3   -1    3    1   -0.000172    0.000000
   -5    3   -1    4    1    0.000000   -0.000000
   -5    3   -1    5    1    0.000571    0.000000
   -5    3   -1    6    1    0.000140   -0.000000
   -5    3   -1    7    1    0.000708   -0.000000
   -5    3   -1    8    1   -0.000231   -0.000000
   -5    3   -1    1    2   -0.000728   -0.000000
   -5    3   -1    2    2    0.000768   -0.000000
   -5    3   -1    3    2    0.000920   -0.000000
   -5    3   -1    4    2   -0.000000   -0.000000
   -5    3   -1    5    2   -0.000140   -0.000000
   -5    3   -1    6    2    0.003542    0.000000
   -5    3   -1    7    2   -0.000043    0.000000
   -5    3   -1    8    2    0.000936    0.000000
   -5    3   -1    1    3    0.000084   -0.000000
   -5    3   -1    2    3    0.001021    0.000000
   -5    3   -1    3    3   -0.003607   -0.000000
   -5    3   -1    4    3   -0.000000    0.000000
   -5    3   -1    5    3   -0.000708   -0.000000
   -5    3   -1    6    3   -0.000043   -0.000000
   -5    3   -1    7    3    0.000316   -0.000000
   -5    3   -1    8    3   -0.000839    0.000000
   -5    3   -1    1    4    0.000000    0.000000
   -5    3   -1    2    4   -0.000000   -0.000000
   -5    3   -1    3    4   -0.000000    0.000000
   -5    3   -1    4    4   -0.001295    0.000000
   -5    3   -1    5    4    0.000231   -0.000000
   -5    3   -1    6    4    0.000936   -0.000000
   -5    3   -1    7    4   -0.000839   -0.000000
   -5    3   -1    8    4    0.000615    0.000000
   -5    3   -1    1    5   -0.000106   -0.000000
   -5    3   -1    2    5    0.000124   -0.000000
   -5    3   -1    3    5   -0.000070    0.000000
   -5    3   -1    4    5    0.000307    0.000000
   -5    3   -1    5    5   -0.000050    0.000000
   -5    3   -1    6    5    0.000728   -0.000000
   -5    3   -1    7    5   -0.000084   -0.000000
   -5    3   -1    8    5   -0.000000    0.000000
   -5    3   -1    1    6   -0.000124   -0.000000
   -5    3   -1    2    6   -0.002423   -0.000000
   -5    3   -1    3    6   -0.000661    0.000000
   -5    3   -1    4    6   -0.000765    0.000000
   -5    3   -1    5    6   -0.000166   -0.000000
   -5    3   -1    6    6    0.000768    0.000000
   -5    3   -1    7    6    0.001021   -0.000000
   -5    3   -1    8    6   -0.000000    0.000000
   -5    3   -1    1    7    0.000070    0.000000
   -5    3   -1    2    7   -0.000661   -0.000000
   -5    3   -1    3    7   -0.003303    0.000000
   -5    3   -1    4    7    0.002643   -0.000000
   -5    3   -1    5    7    0.000172    0.000000
   -5    3   -1    6    7    0.000920    0.000000
   -5    3   -1    7    7   -0.003607    0.000000
   -5    3   -1    8    7   -0.000000   -0.000000
   -5    3   -1    1    8   -0.000307    0.000000
   -5    3   -1    2    8   -0.000765   -0.000000
   -5    3   -1    3    8    0.002643    0.000000
   -5    3   -1    4    8   -0.000571   -0.000000
   -5    3   -1    5    8   -0.000000   -0.000000
   -5    3   -1    6    8   -0.000000    0.000000
   -5    3   -1    7    8   -0.000000   -0.000000
   -5    3   -1    8    8   -0.001295   -0.000000
   -5    3    0    1    1    0.000145   -0.000000
   -5    3    0    2    1    0.000177   -0.000000
   -5    3    0    3    1   -0.001186    0.000000
   -5    3    0    4    1   -0.000000    0.000000
   -5    3    0    5    1    0.000252   -0.000000
   -5    3    0    6    1    0.000131    0.000000
   -5    3    0    7    1   -0.000140   -0.000000
   -5    3    0    8    1   -0.000511   -0.000000
   -5    3    0    1    2    0.000179   -0.000000
   -5    3    0    2    2   -0.000488    0.000000
   -5    3    0    3    2    0.000154   -0.000000
   -5    3    0    4    2    0.000000    0.000000
   -5    3    0    5    2   -0.000131    0.000000
   -5    3    0    6    2   -0.001000   -0.000000
   -5    3    0    7    2    0.000077   -0.000000
   -5    3    0    8    2   -0.001387   -0.000000
   -5    3    0    1    3    0.000160    0.000000
   -5    3    0    2    3    0.002588    0.000000
   -5    3    0    3    3    0.001884    0.000000
   -5    3    0    4    3    0.000000    0.000000
   -5    3    0    5    3    0.000140   -0.000000
   -5    3    0    6    3    0.000077    0.000000
   -5    3    0    7    3    0.001985    0.000000
   -5    3    0    8    3    0.001247   -0.000000
   -5    3    0    1    4   -0.000000   -0.000000
   -5    3    0    2    4   -0.000000    0.000000
   -5    3    0    3    4    0.000000    0.000000
   -5    3    0    4    4    0.003109    0.000000
   -5    3    0    5    4    0.000511   -0.000000
   -5    3    0    6    4   -0.001387    0.000000
   -5    3    0    7    4    0.001247    0.000000
   -5    3    0    8    4   -0.002368   -0.000000
   -5    3    0    1    5   -0.000013    0.000000
   -5    3    0    2    5    0.000313   -0.000000
   -5    3    0    3    5    0.000587    0.000000
   -5    3    0    4    5   -0.000252    0.000000
   -5    3    0    5    5    0.000145    0.000000
   -5    3    0    6    5   -0.000179   -0.000000
   -5    3    0    7    5   -0.000160    0.000000
   -5    3    0    8    5    0.000000   -0.000000
   -5    3    0    1    6   -0.000313   -0.000000
   -5    3    0    2    6    0.002391    0.000000
   -5    3    0    3    6   -0.001047    0.000000
   -5    3    0    4    6    0.000891   -0.000000
   -5    3    0    5    6   -0.000177   -0.000000
   -5    3    0    6    6   -0.000488   -0.000000
   -5    3    0    7    6    0.002588   -0.000000
   -5    3    0    8    6   -0.000000   -0.000000
   -5    3    0    1    7   -0.000587    0.000000
   -5    3    0    2    7   -0.001047   -0.000000
   -5    3    0    3    7    0.005102   -0.000000
   -5    3    0    4    7    0.001482   -0.000000
   -5    3    0    5    7    0.001186    0.000000
   -5    3    0    6    7    0.000154    0.000000
   -5    3    0    7    7    0.001884   -0.000000
   -5    3    0    8    7    0.000000   -0.000000
   -5    3    0    1    8    0.000252    0.000000
   -5    3    0    2    8    0.000891    0.000000
   -5    3    0    3    8    0.001482    0.000000
   -5    3    0    4    8    0.000642    0.000000
   -5    3    0    5    8    0.000000    0.000000
   -5    3    0    6    8    0.000000   -0.000000
   -5    3    0    7    8    0.000000   -0.000000
   -5    3    0    8    8    0.003109   -0.000000
   -5    3    1    1    1    0.000066    0.000000
   -5    3    1    2    1    0.000065   -0.000000
   -5    3    1    3    1   -0.000801   -0.000000
   -5    3    1    4    1    0.000000   -0.000000
   -5    3    1    5    1   -0.000162    0.000000
   -5    3    1    6    1   -0.000123    0.000000
   -5    3    1    7    1   -0.000052    0.000000
   -5    3    1    8    1   -0.000771    0.000000
   -5    3    1    1    2    0.000167   -0.000000
   -5    3    1    2    2    0.001189    0.000000
   -5    3    1    3    2    0.000950   -0.000000
   -5    3    1    4    2    0.000000    0.000000
   -5    3    1    5    2    0.000123    0.000000
   -5    3    1    6    2   -0.001646    0.000000
   -5    3    1    7    2   -0.000711   -0.000000
   -5    3    1    8    2   -0.000398    0.000000
   -5    3    1    1    3   -0.000252   -0.000000
   -5    3    1    2    3   -0.001087    0.000000
   -5    3    1    3    3    0.001339    0.000000
   -5    3    1    4    3   -0.000000    0.000000
   -5    3    1    5    3    0.000052    0.000000
   -5    3    1    6    3   -0.000711    0.000000
   -5    3    1    7    3    0.002137   -0.000000
   -5    3    1    8    3   -0.000828   -0.000000
   -5    3    1    1    4    0.000000    0.000000
   -5    3    1    2    4   -0.000000    0.000000
   -5    3    1    3    4    0.000000   -0.000000
   -5    3    1    4    4    0.001417    0.000000
   -5    3    1    5    4    0.000771    0.000000
   -5    3    1    6    4   -0.000398   -0.000000
   -5    3    1    7    4   -0.000828    0.000000
   -5    3    1    8    4   -0.001383    0.000000
   -5    3    1    1    5    0.000044   -0.000000
   -5    3    1    2    5    0.000017    0.000000
   -5    3    1    3    5    0.000207   -0.000000
   -5    3    1    4    5    0.000752    0.000000
   -5    3    1    5    5    0.000066   -0.000000
   -5    3    1    6    5   -0.000167   -0.000000
   -5    3    1    7    5    0.000252   -0.000000
   -5    3    1    8    5   -0.000000    0.000000
   -5    3    1    1    6   -0.000017    0.000000
   -5    3    1    2    6    0.000745   -0.000000
   -5    3    1    3    6   -0.001133   -0.000000
   -5    3    1    4    6   -0.001173    0.000000
   -5    3    1    5    6   -0.000065   -0.000000
   -5    3    1    6    6    0.001189   -0.000000
   -5    3    1    7    6   -0.001087   -0.000000
   -5    3    1    8    6   -0.000000   -0.000000
   -5    3    1    1    7   -0.000207   -0.000000
   -5    3    1    2    7   -0.001133    0.000000
   -5    3    1    3    7   -0.001081    0.000000
   -5    3    1    4    7    0.000562   -0.000000
   -5    3    1    5    7    0.000801   -0.000000
   -5    3    1    6    7    0.000950    0.000000
   -5    3    1    7    7    0.001339   -0.000000
   -5    3    1    8    7    0.000000    0.000000
   -5    3    1    1    8   -0.000752    0.000000
   -5    3    1    2    8   -0.001173   -0.000000
   -5    3    1    3    8    0.000562    0.000000
   -5    3    1    4    8   -0.001929   -0.000000
   -5    3    1    5    8   -0.000000   -0.000000
   -5    3    1    6    8    0.000000   -0.000000
   -5    3    1    7    8   -0.000000   -0.000000
   -5    3    1    8    8    0.001417   -0.000000
   -5    3    2    1    1    0.000114    0.000000
   -5    3    2    2    1    0.000450   -0.000000
   -5    3    2    3    1    0.000692   -0.000000
   -5    3    2    4    1   -0.000000    0.000000
   -5    3    2    5    1    0.000100   -0.000000
   -5    3    2    6    1   -0.000081    0.000000
   -5    3    2    7    1   -0.000529    0.000000
   -5    3    2    8    1   -0.000158   -0.000000
   -5    3    2    1    2   -0.000693   -0.000000
   -5    3    2    2    2    0.000414   -0.000000
   -5    3    2    3    2   -0.000504    0.000000
   -5    3    2    4    2    0.000000   -0.000000
   -5    3    2    5    2    0.000081    0.000000
   -5    3    2    6    2    0.002930   -0.000000
   -5    3    2    7    2   -0.000205    0.000000
   -5    3    2    8    2    0.001341    0.000000
   -5    3    2    1    3    0.000155   -0.000000
   -5    3    2    2    3    0.000407   -0.000000
   -5    3    2    3    3    0.001158    0.000000
   -5    3    2    4    3    0.000000    0.000000
   -5    3    2    5    3    0.000529    0.000000
   -5    3    2    6    3   -0.000205   -0.000000
   -5    3    2    7    3    0.001685    0.000000
   -5    3    2    8    3   -0.000837    0.000000
   -5    3    2    1    4   -0.000000   -0.000000
   -5    3    2    2    4    0.000000    0.000000
   -5    3    2    3    4    0.000000   -0.000000
   -5    3    2    4    4    0.003410    0.000000
   -5    3    2    5    4    0.000158   -0.000000
   -5    3    2    6    4    0.001341   -0.000000
   -5    3    2    7    4   -0.000837   -0.000000
   -5    3    2    8    4    0.001148   -0.000000
   -5    3    2    1    5   -0.000014    0.000000
   -5    3    2    2    5    0.000173    0.000000
   -5    3    2    3    5   -0.000006   -0.000000
   -5    3    2    4    5    0.000481   -0.000000
   -5    3    2    5    5    0.000114   -0.000000
   -5    3    2    6    5    0.000693   -0.000000
   -5    3    2    7    5   -0.000155   -0.000000
   -5    3    2    8    5    0.000000   -0.000000
   -5    3    2    1    6   -0.000173    0.000000
   -5    3    2    2    6   -0.000667    0.000000
   -5    3    2    3    6   -0.001585   -0.000000
   -5    3    2    4    6   -0.001420    0.000000
   -5    3    2    5    6   -0.000450   -0.000000
   -5    3    2    6    6    0.000414    0.000000
   -5    3    2    7    6    0.000407    0.000000
   -5    3    2    8    6    0.000000   -0.000000
   -5    3    2    1    7    0.000006   -0.000000
   -5    3    2    2    7   -0.001585    0.000000
   -5    3    2    3    7   -0.002649   -0.000000
   -5    3    2    4    7    0.000061   -0.000000
   -5    3    2    5    7   -0.000692   -0.000000
   -5    3    2    6    7   -0.000504   -0.000000
   -5    3    2    7    7    0.001158   -0.000000
   -5    3    2    8    7    0.000000    0.000000
   -5    3    2    1    8   -0.000481   -0.000000
   -5    3    2    2    8   -0.001420   -0.000000
   -5    3    2    3    8    0.000061    0.000000
   -5    3    2    4    8   -0.002820    0.000000
   -5    3    2    5    8    0.000000    0.000000
   -5    3    2    6    8    0.000000    0.000000
   -5    3    2    7    8    0.000000   -0.000000
   -5    3    2    8    8    0.003410   -0.000000
   -5    3    3    1    1   -0.000122    0.000000
   -5    3    3    2    1   -0.000167    0.000000
   -5    3    3    3    1   -0.000497    0.000000
   -5    3    3    4    1    0.000000   -0.000000
   -5    3    3    5    1   -0.000050    0.000000
   -5    3    3    6    1   -0.000068   -0.000000
   -5    3    3    7    1    0.000050   -0.000000
   -5    3    3    8    1   -0.000133   -0.000000
   -5    3    3    1    2    0.000147   -0.000000
   -5    3    3    2    2    0.000254    0.000000
   -5    3    3    3    2    0.000101   -0.000000
   -5    3    3    4    2   -0.000000   -0.000000
   -5    3    3    5    2    0.000068   -0.000000
   -5    3    3    6    2    0.000030    0.000000
   -5    3    3    7    2   -0.001773    0.000000
   -5    3    3    8    2    0.000645   -0.000000
   -5    3    3    1    3    0.000432   -0.000000
   -5    3    3    2    3    0.000104   -0.000000
   -5    3    3    3    3    0.000522    0.000000
   -5    3    3    4    3    0.000000    0.000000
   -5    3    3    5    3   -0.000050   -0.000000
   -5    3    3    6    3   -0.001773   -0.000000
   -5    3    3    7    3   -0.007495   -0.000000
   -5    3    3    8    3    0.001362   -0.000000
   -5    3    3    1    4    0.000000    0.000000
   -5    3    3    2    4    0.000000   -0.000000
   -5    3    3    3    4   -0.000000   -0.000000
   -5    3    3    4    4    0.000215    0.000000
   -5    3    3    5    4    0.000133   -0.000000
   -5    3    3    6    4    0.000645    0.000000
   -5    3    3    7    4    0.001362    0.000000
   -5    3    3    8    4    0.000545    0.000000
   -5    3    3    1    5    0.000061   -0.000000
   -5    3    3    2    5   -0.000066   -0.000000
   -5    3    3    3    5   -0.000766    0.000000
   -5    3    3    4    5    0.000317   -0.000000
   -5    3    3    5    5   -0.000122   -0.000000
   -5    3    3    6    5   -0.000147   -0.000000
   -5    3    3    7    5   -0.000432   -0.000000
   -5    3    3    8    5   -0.000000    0.000000
   -5    3    3    1    6    0.000066   -0.000000
   -5    3    3    2    6    0.002230   -0.000000
   -5    3    3    3    6    0.000665   -0.000000
   -5    3    3    4    6   -0.001355    0.000000
   -5    3    3    5    6    0.000167    0.000000
   -5    3    3    6    6    0.000254   -0.000000
   -5    3    3    7    6    0.000104    0.000000
   -5    3    3    8    6    0.000000    0.000000
   -5    3    3    1    7    0.000766    0.000000
   -5    3    3    2    7    0.000665    0.000000
   -5    3    3    3    7    0.003112    0.000000
   -5    3    3    4    7    0.000933    0.000000
   -5    3    3    5    7    0.000497    0.000000
   -5    3    3    6    7    0.000101    0.000000
   -5    3    3    7    7    0.000522   -0.000000
   -5    3    3    8    7   -0.000000    0.000000
   -5    3    3    1    8   -0.000317   -0.000000
   -5    3    3    2    8   -0.001355   -0.000000
   -5    3    3    3    8    0.000933   -0.000000
   -5    3    3    4    8    0.000081   -0.000000
   -5    3    3    5    8   -0.000000   -0.000000
   -5    3    3    6    8   -0.000000    0.000000
   -5    3    3    7    8    0.000000   -0.000000
   -5    3    3    8    8    0.000215   -0.000000
   -4   -2    3    1    1   -0.000008    0.000000
   -4   -2    3    2    1    0.000368    0.000000
   -4   -2    3    3    1    0.000461   -0.000000
   -4   -2    3    4    1   -0.001657    0.000000
   -4   -2    3    5    1   -0.000269    0.000000
   -4   -2    3    6    1    0.000160    0.000000
   -4   -2    3    7    1    0.000695    0.000000
   -4   -2    3    8    1    0.000115   -0.000000
   -4   -2    3    1    2   -0.000834    0.000000
   -4   -2    3    2    2   -0.000456   -0.000000
   -4   -2    3    3    2    0.001714    0.000000
   -4   -2    3    4    2   -0.000750   -0.000000
   -4   -2    3    5    2   -0.000160    0.000000
   -4   -2    3    6    2   -0.004153    0.000000
   -4   -2    3    7    2    0.000476    0.000000
   -4   -2    3    8    2   -0.001453    0.000000
   -4   -2    3    1    3    0.000395    0.000000
   -4   -2    3    2    3    0.000987   -0.000000
   -4   -2    3    3    3   -0.003910    0.000000
   -4   -2    3    4    3   -0.000269   -0.000000
   -4   -2    3    5    3   -0.000695    0.000000
   -4   -2    3    6    3    0.000476   -0.000000
   -4   -2    3    7    3   -0.002973   -0.000000
   -4   -2    3    8    3    0.000447    0.000000
   -4   -2    3    1    4    0.000944    0.000000
   -4   -2    3    2    4   -0.000090    0.000000
   -4   -2    3    3    4   -0.001862    0.000000
   -4   -2    3    4    4   -0.002132   -0.000000
   -4   -2    3    5    4   -0.000115   -0.000000
   -4   -2    3    6    4   -0.001453   -0.000000
   -4   -2    3    7    4    0.000447   -0.000000
   -4   -2    3    8    4   -0.002555   -0.000000
   -4   -2    3    1    5    0.000297   -0.000000
   -4   -2    3    2    5   -0.000346    0.000000
   -4   -2    3    3    5    0.000262   -0.000000
   -4   -2    3    4    5   -0.000206   -0.000000
   -4   -2    3    5    5   -0.000008   -0.000000
   -4   -2    3    6    5    0.000834    0.000000
   -4   -2    3    7    5   -0.000395    0.000000
   -4   -2    3    8    5   -0.000944    0.000000
   -4   -2    3    1    6    0.000346    0.000000
   -4   -2    3    2    6    0.004582   -0.000000
   -4   -2    3    3    6    0.003275    0.000000
   -4   -2    3    4    6    0.000655   -0.000000
   -4   -2    3    5    6   -0.000368    0.000000
   -4   -2    3    6    6   -0.000456    0.000000
   -4   -2    3    7    6    0.000987    0.000000
   -4   -2    3    8    6   -0.000090   -0.000000
   -4   -2    3    1    7   -0.000262   -0.000000
   -4   -2    3    2    7    0.003275   -0.000000
   -4   -2    3    3    7    0.000402    0.000000
   -4   -2    3    4    7    0.000739    0.000000
   -4   -2    3    5    7   -0.000461   -0.000000
   -4   -2    3    6    7    0.001714   -0.000000
   -4   -2    3    7    7   -0.003910   -0.000000
   -4   -2    3    8    7   -0.001862   -0.000000
   -4   -2    3    1    8    0.000206   -0.000000
   -4   -2    3    2    8    0.000655    0.000000
   -4   -2    3    3    8    0.000739   -0.000000
   -4   -2    3    4    8    0.003644    0.000000
   -4   -2    3    5    8    0.001657    0.000000
   -4   -2    3    6    8   -0.000750    0.000000
   -4   -2    3    7    8   -0.000269    0.000000
   -4   -2    3    8    8   -0.002132    0.000000
   -4   -1    2    1    1   -0.000018    0.000000
   -4   -1    2    2    1    0.000857    0.000000
   -4   -1    2    3    1    0.000810    0.000000
   -4   -1    2    4    1    0.000159    0.000000
   -4   -1    2    5    1    0.000571    0.000000
   -4   -1    2    6    1    0.000462    0.000000
   -4   -1    2    7    1    0.000601   -0.000000
   -4   -1    2    8    1    0.000032   -0.000000
   -4   -1    2    1    2    0.000032    0.000000
   -4   -1    2    2    2    0.000942    0.000000
   -4   -1    2    3    2   -0.000933    0.000000
   -4   -1    2    4    2   -0.002407    0.000000
   -4   -1    2    5    2   -0.000462    0.000000
   -4   -1    2    6    2    0.002085   -0.000000
   -4   -1    2    7    2   -0.000532   -0.000000
   -4   -1    2    8    2   -0.001285   -0.000000
   -4   -1    2    1    3   -0.000451    0.000000
   -4   -1    2    2    3    0.000656    0.000000
   -4   -1    2    3    3   -0.002205    0.000000
   -4   -1    2    4    3   -0.000657    0.000000
   -4   -1    2    5    3   -0.000601   -0.000000
   -4   -1    2    6    3   -0.000532    0.000000
   -4   -1    2    7    3    0.000808   -0.000000
   -4   -1    2    8    3    0.001561   -0.000000
   -4   -1    2    1    4   -0.000291    0.000000
   -4   -1    2    2    4   -0.002512    0.000000
   -4   -1    2    3    4   -0.000504   -0.000000
   -4   -1    2    4    4    0.000866   -0.000000
   -4   -1    2    5    4   -0.000032   -0.000000
   -4   -1    2    6    4   -0.001285    0.000000
   -4   -1    2    7    4    0.001561    0.000000
   -4   -1    2    8    4    0.001574    0.000000
   -4   -1    2    1    5   -0.000233   -0.000000
   -4   -1    2    2    5   -0.000307    0.000000
   -4   -1    2    3    5   -0.000631    0.000000
   -4   -1    2    4    5    0.000333    0.000000
   -4   -1    2    5    5   -0.000018   -0.000000
   -4   -1    2    6    5   -0.000032    0.000000
   -4   -1    2    7    5    0.000451    0.000000
   -4   -1    2    8    5    0.000291    0.000000
   -4   -1    2    1    6    0.000307    0.000000
   -4   -1    2    2    6   -0.003014    0.000000
   -4   -1    2    3    6    0.000324    0.000000
   -4   -1    2    4    6    0.000132   -0.000000
   -4   -1    2    5    6   -0.000857    0.000000
   -4   -1    2    6    6    0.000942   -0.000000
   -4   -1    2    7    6    0.000656   -0.000000
   -4   -1    2    8    6   -0.002512   -0.000000
   -4   -1    2    1    7    0.000631    0.000000
   -4   -1    2    2    7    0.000324   -0.000000
   -4   -1    2    3    7    0.000899    0.000000
   -4   -1    2    4    7   -0.000872    0.000000
   -4   -1    2    5    7   -0.000810    0.000000
   -4   -1    2    6    7   -0.000933   -0.000000
   -4   -1    2    7    7   -0.002205   -0.000000
   -4   -1    2    8    7   -0.000504    0.000000
   -4   -1    2    1    8   -0.000333    0.000000
   -4   -1    2    2    8    0.000132    0.000000
   -4   -1    2    3    8   -0.000872   -0.000000
   -4   -1    2    4    8   -0.002424   -0.000000
   -4   -1    2    5    8   -0.000159    0.000000
   -4   -1    2    6    8   -0.002407   -0.000000
   -4   -1    2    7    8   -0.000657   -0.000000
   -4   -1    2    8    8    0.000866    0.000000
   -4   -1    3    1    1    0.000073   -0.000000
   -4   -1    3    2    1   -0.001081   -0.000000
   -4   -1    3    3    1   -0.000235   -0.000000
   -4   -1    3    4    1    0.000246   -0.000000
   -4   -1    3    5    1   -0.000245   -0.000000
   -4   -1    3    6    1   -0.000088   -0.000000
   -4   -1    3    7    1   -0.000303    0.000000
   -4   -1    3    8    1   -0.000020    0.000000
   -4   -1    3    1    2    0.000713   -0.000000
   -4   -1    3    2    2    0.000156   -0.000000
   -4   -1    3    3    2    0.001608    0.000000
   -4   -1    3    4    2    0.000569   -0.000000
   -4   -1    3    5    2    0.000088   -0.000000
   -4   -1    3    6    2    0.001144    0.000000
   -4   -1    3    7    2    0.000379   -0.000000
   -4   -1    3    8    2    0.001110   -0.000000
   -4   -1    3    1    3   -0.000377    0.000000
   -4   -1    3    2    3    0.000150   -0.000000
   -4   -1    3    3    3    0.003822   -0.000000
   -4   -1    3    4    3   -0.000098   -0.000000
   -4   -1    3    5    3    0.000303    0.000000
   -4   -1    3    6    3    0.000379    0.000000
   -4   -1    3    7    3    0.000417    0.000000
   -4   -1    3    8    3   -0.001316   -0.000000
   -4   -1    3    1    4    0.000043    0.000000
   -4   -1    3    2    4   -0.000626    0.000000
   -4   -1    3    3    4   -0.000843    0.000000
   -4   -1    3    4    4    0.000740    0.000000
   -4   -1    3    5    4    0.000020    0.000000
   -4   -1    3    6    4    0.001110    0.000000
   -4   -1    3    7    4   -0.001316    0.000000
   -4   -1    3    8    4   -0.000864    0.000000
   -4   -1    3    1    5   -0.000126    0.000000
   -4   -1    3    2    5   -0.000251   -0.000000
   -4   -1    3    3    5    0.000436   -0.000000
   -4   -1    3    4    5    0.000223    0.000000
   -4   -1    3    5    5    0.000073    0.000000
   -4   -1    3    6    5   -0.000713   -0.000000
   -4   -1    3    7    5    0.000377    0.000000
   -4   -1    3    8    5   -0.000043    0.000000
   -4   -1    3    1    6    0.000251   -0.000000
   -4   -1    3    2    6    0.001188   -0.000000
   -4   -1    3    3    6    0.003594   -0.000000
   -4   -1    3    4    6    0.001220   -0.000000
   -4   -1    3    5    6    0.001081   -0.000000
   -4   -1    3    6    6    0.000156    0.000000
   -4   -1    3    7    6    0.000150    0.000000
   -4   -1    3    8    6   -0.000626   -0.000000
   -4   -1    3    1    7   -0.000436   -0.000000
   -4   -1    3    2    7    0.003594    0.000000
   -4   -1    3    3    7    0.000202   -0.000000
   -4   -1    3    4    7   -0.002017   -0.000000
   -4   -1    3    5    7    0.000235   -0.000000
   -4   -1    3    6    7    0.001608   -0.000000
   -4   -1    3    7    7    0.003822    0.000000
   -4   -1    3    8    7   -0.000843   -0.000000
   -4   -1    3    1    8   -0.000223    0.000000
   -4   -1    3    2    8    0.001220    0.000000
   -4   -1    3    3    8   -0.002017    0.000000
   -4   -1    3    4    8    0.001060   -0.000000
   -4   -1    3    5    8   -0.000246   -0.000000
   -4   -1    3    6    8    0.000569    0.000000
   -4   -1    3    7    8   -0.000098    0.000000
   -4   -1    3    8    8    0.000740   -0.000000
   -4    0    0    1    1    0.000027    0.000000
   -4    0    0    2    1    0.000100    0.000000
   -4    0    0    3    1   -0.000559   -0.000000
   -4    0    0    4    1    0.000472    0.000000
   -4    0    0    5    1   -0.000298   -0.000000
   -4    0    0    6    1   -0.000174    0.000000
   -4    0    0    7    1   -0.000074    0.000000
   -4    0    0    8    1   -0.000244    0.000000
   -4    0    0    1    2    0.000100   -0.000000
   -4    0    0    2    2    0.001912   -0.000000
   -4    0    0    3    2    0.001167    0.000000
   -4    0    0    4    2    0.001232   -0.000000
   -4    0    0    5    2    0.000174    0.000000
   -4    0    0    6    2    0.002055   -0.000000
   -4    0    0    7    2   -0.000901   -0.000000
   -4    0    0    8    2   -0.000330    0.000000
   -4    0    0    1    3   -0.000559    0.000000
   -4    0    0    2    3    0.001167   -0.000000
   -4    0    0    3    3    0.002212   -0.000000
   -4    0    0    4    3    0.001110   -0.000000
   -4    0    0    5    3    0.000074    0.000000
   -4    0    0    6    3   -0.000901    0.000000
   -4    0    0    7    3    0.006419    0.000000
   -4    0    0    8    3   -0.003616    0.000000
   -4    0    0    1    4    0.000472   -0.000000
   -4    0    0    2    4    0.001232    0.000000
   -4    0    0    3    4    0.001110    0.000000
   -4    0    0    4    4    0.002165   -0.000000
   -4    0    0    5    4    0.000244    0.000000
   -4    0    0    6    4   -0.000330   -0.000000
   -4    0    0    7    4   -0.003616   -0.000000
   -4    0    0    8    4    0.004018    0.000000
   -4    0    0    1    5   -0.000298    0.000000
   -4    0    0    2    5    0.000174   -0.000000
   -4    0    0    3    5    0.000074   -0.000000
   -4    0    0    4    5    0.000244   -0.000000
   -4    0    0    5    5    0.000027    0.000000
   -4    0    0    6    5   -0.000100   -0.000000
   -4    0    0    7    5    0.000559    0.000000
   -4    0    0    8    5   -0.000472   -0.000000
   -4    0    0    1    6   -0.000174   -0.000000
   -4    0    0    2    6    0.002055    0.000000
   -4    0    0    3    6   -0.000901   -0.000000
   -4    0    0    4    6   -0.000330    0.000000
   -4    0    0    5    6   -0.000100    0.000000
   -4    0    0    6    6    0.001912   -0.000000
   -4    0    0    7    6    0.001167    0.000000
   -4    0    0    8    6    0.001232   -0.000000
   -4    0    0    1    7   -0.000074   -0.000000
   -4    0    0    2    7   -0.000901    0.000000
   -4    0    0    3    7    0.006419   -0.000000
   -4    0    0    4    7   -0.003616    0.000000
   -4    0    0    5    7    0.000559   -0.000000
   -4    0    0    6    7    0.001167   -0.000000
   -4    0    0    7    7    0.002212   -0.000000
   -4    0    0    8    7    0.001110   -0.000000
   -4    0    0    1    8   -0.000244   -0.000000
   -4    0    0    2    8   -0.000330   -0.000000
   -4    0    0    3    8   -0.003616   -0.000000
   -4    0    0    4    8    0.004018   -0.000000
   -4    0    0    5    8   -0.000472    0.000000
   -4    0    0    6    8    0.001232    0.000000
   -4    0    0    7    8    0.001110    0.000000
   -4    0    0    8    8    0.002165   -0.000000
   -4    0    1    1    1   -0.000099    0.000000
   -4    0    1    2    1   -0.000425    0.000000
   -4    0    1    3    1   -0.000156    0.000000
   -4    0    1    4    1    0.000368   -0.000000
   -4    0    1    5    1    0.000395    0.000000
   -4    0    1    6    1    0.000047   -0.000000
   -4    0    1    7    1    0.000020    0.000000
   -4    0    1    8    1    0.000014    0.000000
   -4    0    1    1    2    0.000175    0.000000
   -4    0    1    2    2   -0.001279    0.000000
   -4    0    1    3    2    0.002335   -0.000000
   -4    0    1    4    2    0.001420    0.000000
   -4    0    1    5    2   -0.000047   -0.000000
   -4    0    1    6    2    0.000195    0.000000
   -4    0    1    7    2   -0.000568   -0.000000
   -4    0    1    8    2    0.002488    0.000000
   -4    0    1    1    3    0.001216    0.000000
   -4    0    1    2    3    0.000488    0.000000
   -4    0    1    3    3   -0.003736    0.000000
   -4    0    1    4    3   -0.002035   -0.000000
   -4    0    1    5    3   -0.000020    0.000000
   -4    0    1    6    3   -0.000568   -0.000000
   -4    0    1    7    3   -0.005596   -0.000000
   -4    0    1    8    3    0.000819   -0.000000
   -4    0    1    1    4   -0.000440    0.000000
   -4    0    1    2    4    0.000690   -0.000000
   -4    0    1    3    4   -0.001522   -0.000000
   -4    0    1    4    4    0.004342    0.000000
   -4    0    1    5    4   -0.000014    0.000000
   -4    0    1    6    4    0.002488   -0.000000
   -4    0    1    7    4    0.000819    0.000000
   -4    0    1    8    4    0.002887   -0.000000
   -4    0    1    1    5    0.000074   -0.000000
   -4    0    1    2    5    0.000007    0.000000
   -4    0    1    3    5   -0.000562   -0.000000
   -4    0    1    4    5    0.000106   -0.000000
   -4    0    1    5    5   -0.000099   -0.000000
   -4    0    1    6    5   -0.000175    0.000000
   -4    0    1    7    5   -0.001216    0.000000
   -4    0    1    8    5    0.000440    0.000000
   -4    0    1    1    6   -0.000007    0.000000
   -4    0    1    2    6    0.000600   -0.000000
   -4    0    1    3    6   -0.000542    0.000000
   -4    0    1    4    6   -0.000439   -0.000000
   -4    0    1    5    6    0.000425    0.000000
   -4    0    1    6    6   -0.001279   -0.000000
   -4    0    1    7    6    0.000488   -0.000000
   -4    0    1    8    6    0.000690    0.000000
   -4    0    1    1    7    0.000562   -0.000000
   -4    0    1    2    7   -0.000542   -0.000000
   -4    0    1    3    7   -0.001534    0.000000
   -4    0    1    4    7    0.000313    0.000000
   -4    0    1    5    7    0.000156    0.000000
   -4    0    1    6    7    0.002335    0.000000
   -4    0    1    7    7   -0.003736   -0.000000
   -4    0    1    8    7   -0.001522    0.000000
   -4    0    1    1    8   -0.000106   -0.000000
   -4    0    1    2    8   -0.000439    0.000000
   -4    0    1    3    8    0.000313   -0.000000
   -4    0    1    4    8   -0.000148    0.000000
   -4    0    1    5    8   -0.000368   -0.000000
   -4    0    1    6    8    0.001420   -0.000000
   -4    0    1    7    8   -0.002035    0.000000
   -4    0    1    8    8    0.004342   -0.000000
   -4    0    2    1    1   -0.000057    0.000000
   -4    0    2    2    1   -0.000389    0.000000
   -4    0    2    3    1    0.000140   -0.000000
   -4    0    2    4    1    0.000144    0.000000
   -4    0    2    5    1    0.000254   -0.000000
   -4    0    2    6    1    0.000311    0.000000
   -4    0    2    7    1   -0.000205   -0.000000
   -4    0    2    8    1    0.000403    0.000000
   -4    0    2    1    2   -0.000252    0.000000
   -4    0    2    2    2   -0.001563    0.000000
   -4    0    2    3    2   -0.002582    0.000000
   -4    0    2    4    2   -0.000049   -0.000000
   -4    0    2    5    2   -0.000311    0.000000
   -4    0    2    6    2   -0.003052   -0.000000
   -4    0    2    7    2    0.001398    0.000000
   -4    0    2    8    2   -0.000209   -0.000000
   -4    0    2    1    3   -0.000519    0.000000
   -4    0    2    2    3   -0.003506   -0.000000
   -4    0    2    3    3    0.002161    0.000000
   -4    0    2    4    3    0.000146    0.000000
   -4    0    2    5    3    0.000205   -0.000000
   -4    0    2    6    3    0.001398   -0.000000
   -4    0    2    7    3    0.001334    0.000000
   -4    0    2    8    3   -0.001090    0.000000
   -4    0    2    1    4    0.000086   -0.000000
   -4    0    2    2    4   -0.002500    0.000000
   -4    0    2    3    4   -0.000527   -0.000000
   -4    0    2    4    4   -0.003787    0.000000
   -4    0    2    5    4   -0.000403    0.000000
   -4    0    2    6    4   -0.000209    0.000000
   -4    0    2    7    4   -0.001090   -0.000000
   -4    0    2    8    4    0.000334    0.000000
   -4    0    2    1    5    0.000049    0.000000
   -4    0    2    2    5    0.000124    0.000000
   -4    0    2    3    5    0.000063    0.000000
   -4    0    2    4    5   -0.000178   -0.000000
   -4    0    2    5    5   -0.000057   -0.000000
   -4    0    2    6    5    0.000252    0.000000
   -4    0    2    7    5    0.000519    0.000000
   -4    0    2    8    5   -0.000086   -0.000000
   -4    0    2    1    6   -0.000124    0.000000
   -4    0    2    2    6   -0.004723    0.000000
   -4    0    2    3    6   -0.000562    0.000000
   -4    0    2    4    6   -0.001890   -0.000000
   -4    0    2    5    6    0.000389    0.000000
   -4    0    2    6    6   -0.001563   -0.000000
   -4    0    2    7    6   -0.003506    0.000000
   -4    0    2    8    6   -0.002500   -0.000000
   -4    0    2    1    7   -0.000063    0.000000
   -4    0    2    2    7   -0.000562   -0.000000
   -4    0    2    3    7    0.000759   -0.000000
   -4    0    2    4    7   -0.000798    0.000000
   -4    0    2    5    7   -0.000140   -0.000000
   -4    0    2    6    7   -0.002582   -0.000000
   -4    0    2    7    7    0.002161   -0.000000
   -4    0    2    8    7   -0.000527    0.000000
   -4    0    2    1    8    0.000178   -0.000000
   -4    0    2    2    8   -0.001890    0.000000
   -4    0    2    3    8   -0.000798   -0.000000
   -4    0    2    4    8   -0.000478   -0.000000
   -4    0    2    5    8   -0.000144    0.000000
   -4    0    2    6    8   -0.000049    0.000000
   -4    0    2    7    8    0.000146   -0.000000
   -4    0    2    8    8   -0.003787   -0.000000
   -4    0    3    1    1   -0.000078    0.000000
   -4    0    3    2    1   -0.000730   -0.000000
   -4    0    3    3    1    0.000361    0.000000
   -4    0    3    4    1   -0.000241   -0.000000
   -4    0    3    5    1    0.000084    0.000000
   -4    0    3    6    1   -0.000031   -0.000000
   -4    0    3    7    1    0.000252   -0.000000
   -4    0    3    8    1    0.000178    0.000000
   -4    0    3    1    2   -0.000456   -0.000000
   -4    0    3    2    2    0.000778   -0.000000
   -4    0    3    3    2    0.001647   -0.000000
   -4    0    3    4    2    0.002075    0.000000
   -4    0    3    5    2    0.000031   -0.000000
   -4    0    3    6    2   -0.002006    0.000000
   -4    0    3    7    2    0.002613    0.000000
   -4    0    3    8    2   -0.003686    0.000000
   -4    0    3    1    3   -0.000204   -0.000000
   -4    0    3    2    3    0.001358   -0.000000
   -4    0    3    3    3   -0.000448   -0.000000
   -4    0    3    4    3   -0.001777    0.000000
   -4    0    3    5    3   -0.000252   -0.000000
   -4    0    3    6    3    0.002613   -0.000000
   -4    0    3    7    3    0.003305   -0.000000
   -4    0    3    8    3    0.000380    0.000000
   -4    0    3    1    4   -0.000358   -0.000000
   -4    0    3    2    4   -0.000698    0.000000
   -4    0    3    3    4   -0.000013   -0.000000
   -4    0    3    4    4    0.000238   -0.000000
   -4    0    3    5    4   -0.000178    0.000000
   -4    0    3    6    4   -0.003686   -0.000000
   -4    0    3    7    4    0.000380   -0.000000
   -4    0    3    8    4    0.001159   -0.000000
   -4    0    3    1    5   -0.000035   -0.000000
   -4    0    3    2    5    0.000220    0.000000
   -4    0    3    3    5   -0.000073    0.000000
   -4    0    3    4    5   -0.000168   -0.000000
   -4    0    3    5    5   -0.000078   -0.000000
   -4    0    3    6    5    0.000456   -0.000000
   -4    0    3    7    5    0.000204   -0.000000
   -4    0    3    8    5    0.000358   -0.000000
   -4    0    3    1    6   -0.000220    0.000000
   -4    0    3    2    6    0.001601   -0.000000
   -4    0    3    3    6   -0.000709    0.000000
   -4    0    3    4    6    0.001756   -0.000000
   -4    0    3    5    6    0.000730   -0.000000
   -4    0    3    6    6    0.000778    0.000000
   -4    0    3    7    6    0.001358    0.000000
   -4    0    3    8    6   -0.000698   -0.000000
   -4    0    3    1    7    0.000073    0.000000
   -4    0    3    2    7   -0.000709   -0.000000
   -4    0    3    3    7    0.000174    0.000000
   -4    0    3    4    7    0.003380    0.000000
   -4    0    3    5    7   -0.000361    0.000000
   -4    0    3    6    7    0.001647    0.000000
   -4    0    3    7    7   -0.000448    0.000000
   -4    0    3    8    7   -0.000013    0.000000
   -4    0    3    1    8    0.000168   -0.000000
   -4    0    3    2    8    0.001756    0.000000
   -4    0    3    3    8    0.003380   -0.000000
   -4    0    3    4    8   -0.001160    0.000000
   -4    0    3    5    8    0.000241   -0.000000
   -4    0    3    6    8    0.002075   -0.000000
   -4    0    3    7    8   -0.001777   -0.000000
   -4    0    3    8    8    0.000238    0.000000
   -4    0    4    1    1   -0.000000   -0.000000
   -4    0    4    2    1    0.000331   -0.000000
   -4    0    4    3    1   -0.001400   -0.000000
   -4    0    4    4    1   -0.001320   -0.000000
   -4    0    4    5    1   -0.000162   -0.000000
   -4    0    4    6    1    0.000658    0.000000
   -4    0    4    7    1   -0.000547    0.000000
   -4    0    4    8    1    0.000519   -0.000000
   -4    0    4    1    2    0.000331    0.000000
   -4    0    4    2    2   -0.008394   -0.000000
   -4    0    4    3    2    0.003715   -0.000000
   -4    0    4    4    2   -0.006426   -0.000000
   -4    0    4    5    2   -0.000658    0.000000
   -4    0    4    6    2    0.000124   -0.000000
   -4    0    4    7    2   -0.000121   -0.000000
   -4    0    4    8    2    0.000906    0.000000
   -4    0    4    1    3   -0.001400    0.000000
   -4    0    4    2    3    0.003715    0.000000
   -4    0    4    3    3   -0.003519    0.000000
   -4    0    4    4    3   -0.000545   -0.000000
   -4    0    4    5    3    0.000547    0.000000
   -4    0    4    6    3   -0.000121    0.000000
   -4    0    4    7    3    0.000298    0.000000
   -4    0    4    8    3   -0.000083    0.000000
   -4    0    4    1    4   -0.001320    0.000000
   -4    0    4    2    4   -0.006426    0.000000
   -4    0    4    3    4   -0.000545    0.000000
   -4    0    4    4    4   -0.003304    0.000000
   -4    0    4    5    4   -0.000519   -0.000000
   -4    0    4    6    4    0.000906   -0.000000
   -4    0    4    7    4   -0.000083   -0.000000
   -4    0    4    8    4    0.002384    0.000000
   -4    0    4    1    5   -0.000162    0.000000
   -4    0    4    2    5   -0.000658   -0.000000
   -4    0    4    3    5    0.000547   -0.000000
   -4    0    4    4    5   -0.000519    0.000000
   -4    0    4    5    5   -0.000000    0.000000
   -4    0    4    6    5   -0.000331    0.000000
   -4    0    4    7    5    0.001400    0.000000
   -4    0    4    8    5    0.001320    0.000000
   -4    0    4    1    6    0.000658   -0.000000
   -4    0    4    2    6    0.000124    0.000000
   -4    0    4    3    6   -0.000121   -0.000000
   -4    0    4    4    6    0.000906    0.000000
   -4    0    4    5    6   -0.000331   -0.000000
   -4    0    4    6    6   -0.008394   -0.000000
   -4    0    4    7    6    0.003715   -0.000000
   -4    0    4    8    6   -0.006426   -0.000000
   -4    0    4    1    7   -0.000547   -0.000000
   -4    0    4    2    7   -0.000121    0.000000
   -4    0    4    3    7    0.000298   -0.000000
   -4    0    4    4    7   -0.000083    0.000000
   -4    0    4    5    7    0.001400   -0.000000
   -4    0    4    6    7    0.003715    0.000000
   -4    0    4    7    7   -0.003519   -0.000000
   -4    0    4    8    7   -0.000545   -0.000000
   -4    0    4    1    8    0.000519    0.000000
   -4    0    4    2    8    0.000906   -0.000000
   -4    0    4    3    8   -0.000083   -0.000000
   -4    0    4    4    8    0.002384   -0.000000
   -4    0    4    5    8    0.001320   -0.000000
   -4    0    4    6    8   -0.006426    0.000000
   -4    0    4    7    8   -0.000545    0.000000
   -4    0    4    8    8   -0.003304   -0.000000
   -4    1   -1    1    1    0.000140    0.000000
   -4    1   -1    2    1    0.000068   -0.000000
   -4    1   -1    3    1   -0.000364   -0.000000
   -4    1   -1    4    1   -0.000433    0.000000
   -4    1   -1    5    1   -0.000303   -0.000000
   -4    1   -1    6    1   -0.000805   -0.000000
   -4    1   -1    7    1   -0.000273    0.000000
[...]
    5   -1   -3    2    7    0.000797   -0.000000
    5   -1   -3    3    7    0.001036    0.000000
    5   -1   -3    4    7   -0.001746    0.000000
    5   -1   -3    5    7    0.000136    0.000000
    5   -1   -3    6    7    0.000522   -0.000000
    5   -1   -3    7    7    0.001256   -0.000000
    5   -1   -3    8    7   -0.000950    0.000000
    5   -1   -3    1    8   -0.000474   -0.000000
    5   -1   -3    2    8   -0.000899    0.000000
    5   -1   -3    3    8   -0.001746   -0.000000
    5   -1   -3    4    8   -0.001066   -0.000000
    5   -1   -3    5    8   -0.000207    0.000000
    5   -1   -3    6    8    0.000325   -0.000000
    5   -1   -3    7    8    0.000727   -0.000000
    5   -1   -3    8    8    0.001292    0.000000
    5   -1   -2    1    1    0.000087    0.000000
    5   -1   -2    2    1    0.000496   -0.000000
    5   -1   -2    3    1   -0.000859   -0.000000
    5   -1   -2    4    1    0.000581   -0.000000
    5   -1   -2    5    1   -0.000189   -0.000000
    5   -1   -2    6    1   -0.000065   -0.000000
    5   -1   -2    7    1   -0.000202   -0.000000
    5   -1   -2    8    1   -0.000176   -0.000000
    5   -1   -2    1    2    0.000325   -0.000000
    5   -1   -2    2    2   -0.000711   -0.000000
    5   -1   -2    3    2   -0.001574   -0.000000
    5   -1   -2    4    2    0.000022    0.000000
    5   -1   -2    5    2    0.000065   -0.000000
    5   -1   -2    6    2   -0.002351   -0.000000
    5   -1   -2    7    2    0.000281    0.000000
    5   -1   -2    8    2    0.001586   -0.000000
    5   -1   -2    1    3   -0.000010    0.000000
    5   -1   -2    2    3   -0.001109   -0.000000
    5   -1   -2    3    3    0.001112    0.000000
    5   -1   -2    4    3    0.001013   -0.000000
    5   -1   -2    5    3    0.000202   -0.000000
    5   -1   -2    6    3    0.000281   -0.000000
    5   -1   -2    7    3   -0.000283    0.000000
    5   -1   -2    8    3   -0.000329   -0.000000
    5   -1   -2    1    4   -0.000294   -0.000000
    5   -1   -2    2    4    0.000882   -0.000000
    5   -1   -2    3    4   -0.000492    0.000000
    5   -1   -2    4    4    0.000012    0.000000
    5   -1   -2    5    4    0.000176   -0.000000
    5   -1   -2    6    4    0.001586    0.000000
    5   -1   -2    7    4   -0.000329    0.000000
    5   -1   -2    8    4    0.002945   -0.000000
    5   -1   -2    1    5   -0.000394    0.000000
    5   -1   -2    2    5   -0.000048    0.000000
    5   -1   -2    3    5   -0.000278    0.000000
    5   -1   -2    4    5   -0.000077    0.000000
    5   -1   -2    5    5    0.000087   -0.000000
    5   -1   -2    6    5   -0.000325   -0.000000
    5   -1   -2    7    5    0.000010   -0.000000
    5   -1   -2    8    5    0.000294   -0.000000
    5   -1   -2    1    6    0.000048    0.000000
    5   -1   -2    2    6   -0.002519    0.000000
    5   -1   -2    3    6    0.000291   -0.000000
    5   -1   -2    4    6   -0.001131   -0.000000
    5   -1   -2    5    6   -0.000496   -0.000000
    5   -1   -2    6    6   -0.000711    0.000000
    5   -1   -2    7    6   -0.001109    0.000000
    5   -1   -2    8    6    0.000882    0.000000
    5   -1   -2    1    7    0.000278    0.000000
    5   -1   -2    2    7    0.000291    0.000000
    5   -1   -2    3    7   -0.000296   -0.000000
    5   -1   -2    4    7    0.001186   -0.000000
    5   -1   -2    5    7    0.000859   -0.000000
    5   -1   -2    6    7   -0.001574    0.000000
    5   -1   -2    7    7    0.001112   -0.000000
    5   -1   -2    8    7   -0.000492   -0.000000
    5   -1   -2    1    8    0.000077    0.000000
    5   -1   -2    2    8   -0.001131    0.000000
    5   -1   -2    3    8    0.001186    0.000000
    5   -1   -2    4    8   -0.000797    0.000000
    5   -1   -2    5    8   -0.000581   -0.000000
    5   -1   -2    6    8    0.000022   -0.000000
    5   -1   -2    7    8    0.001013    0.000000
    5   -1   -2    8    8    0.000012   -0.000000
    5   -1   -1    1    1    0.000060   -0.000000
    5   -1   -1    2    1    0.000223    0.000000
    5   -1   -1    3    1    0.000611   -0.000000
    5   -1   -1    4    1    0.000027    0.000000
    5   -1   -1    5    1   -0.000156    0.000000
    5   -1   -1    6    1    0.000273   -0.000000
    5   -1   -1    7    1    0.000462    0.000000
    5   -1   -1    8    1    0.000191   -0.000000
    5   -1   -1    1    2   -0.000179   -0.000000
    5   -1   -1    2    2   -0.000481   -0.000000
    5   -1   -1    3    2   -0.001146    0.000000
    5   -1   -1    4    2    0.001220   -0.000000
    5   -1   -1    5    2   -0.000273   -0.000000
    5   -1   -1    6    2    0.001661    0.000000
    5   -1   -1    7    2    0.000148   -0.000000
    5   -1   -1    8    2    0.001998    0.000000
    5   -1   -1    1    3    0.000552   -0.000000
    5   -1   -1    2    3    0.000437   -0.000000
    5   -1   -1    3    3   -0.000824    0.000000
    5   -1   -1    4    3    0.000716   -0.000000
    5   -1   -1    5    3   -0.000462    0.000000
    5   -1   -1    6    3    0.000148    0.000000
    5   -1   -1    7    3    0.002109   -0.000000
    5   -1   -1    8    3   -0.000712    0.000000
    5   -1   -1    1    4   -0.000596    0.000000
    5   -1   -1    2    4    0.000343   -0.000000
    5   -1   -1    3    4   -0.001890    0.000000
    5   -1   -1    4    4    0.000774   -0.000000
    5   -1   -1    5    4   -0.000191   -0.000000
    5   -1   -1    6    4    0.001998   -0.000000
    5   -1   -1    7    4   -0.000712   -0.000000
    5   -1   -1    8    4    0.004062    0.000000
    5   -1   -1    1    5    0.000326   -0.000000
    5   -1   -1    2    5   -0.000079    0.000000
    5   -1   -1    3    5   -0.000459   -0.000000
    5   -1   -1    4    5    0.000123    0.000000
    5   -1   -1    5    5    0.000060    0.000000
    5   -1   -1    6    5    0.000179   -0.000000
    5   -1   -1    7    5   -0.000552   -0.000000
    5   -1   -1    8    5    0.000596    0.000000
    5   -1   -1    1    6    0.000079    0.000000
    5   -1   -1    2    6    0.000680   -0.000000
    5   -1   -1    3    6    0.001269   -0.000000
    5   -1   -1    4    6    0.002169    0.000000
    5   -1   -1    5    6   -0.000223    0.000000
    5   -1   -1    6    6   -0.000481    0.000000
    5   -1   -1    7    6    0.000437    0.000000
    5   -1   -1    8    6    0.000343    0.000000
    5   -1   -1    1    7    0.000459   -0.000000
    5   -1   -1    2    7    0.001269    0.000000
    5   -1   -1    3    7   -0.004431    0.000000
    5   -1   -1    4    7    0.003943    0.000000
    5   -1   -1    5    7   -0.000611   -0.000000
    5   -1   -1    6    7   -0.001146   -0.000000
    5   -1   -1    7    7   -0.000824   -0.000000
    5   -1   -1    8    7   -0.001890   -0.000000
    5   -1   -1    1    8   -0.000123    0.000000
    5   -1   -1    2    8    0.002169   -0.000000
    5   -1   -1    3    8    0.003943   -0.000000
    5   -1   -1    4    8    0.000311   -0.000000
    5   -1   -1    5    8   -0.000027    0.000000
    5   -1   -1    6    8    0.001220    0.000000
    5   -1   -1    7    8    0.000716    0.000000
    5   -1   -1    8    8    0.000774    0.000000
    5    0   -3    1    1    0.000147    0.000000
    5    0   -3    2    1    0.000009   -0.000000
    5    0   -3    3    1    0.000215   -0.000000
    5    0   -3    4    1    0.000101    0.000000
    5    0   -3    5    1   -0.000013   -0.000000
    5    0   -3    6    1    0.000048   -0.000000
    5    0   -3    7    1   -0.000711    0.000000
    5    0   -3    8    1    0.000034   -0.000000
    5    0   -3    1    2   -0.000600   -0.000000
    5    0   -3    2    2    0.001993   -0.000000
    5    0   -3    3    2   -0.000630    0.000000
    5    0   -3    4    2    0.001481    0.000000
    5    0   -3    5    2   -0.000048   -0.000000
    5    0   -3    6    2    0.002708    0.000000
    5    0   -3    7    2    0.002794    0.000000
    5    0   -3    8    2   -0.001106    0.000000
    5    0   -3    1    3   -0.000928   -0.000000
    5    0   -3    2    3    0.000586   -0.000000
    5    0   -3    3    3    0.002543   -0.000000
    5    0   -3    4    3   -0.001276    0.000000
    5    0   -3    5    3    0.000711    0.000000
    5    0   -3    6    3    0.002794   -0.000000
    5    0   -3    7    3    0.002477    0.000000
    5    0   -3    8    3   -0.000249   -0.000000
    5    0   -3    1    4    0.000473    0.000000
    5    0   -3    2    4    0.002155    0.000000
    5    0   -3    3    4    0.000732   -0.000000
    5    0   -3    4    4   -0.000033   -0.000000
    5    0   -3    5    4   -0.000034   -0.000000
    5    0   -3    6    4   -0.001106   -0.000000
    5    0   -3    7    4   -0.000249    0.000000
    5    0   -3    8    4    0.002944   -0.000000
    5    0   -3    1    5    0.000252    0.000000
    5    0   -3    2    5    0.000529    0.000000
    5    0   -3    3    5   -0.000082   -0.000000
    5    0   -3    4    5    0.000111    0.000000
    5    0   -3    5    5    0.000147   -0.000000
    5    0   -3    6    5    0.000600   -0.000000
    5    0   -3    7    5    0.000928   -0.000000
    5    0   -3    8    5   -0.000473    0.000000
    5    0   -3    1    6   -0.000529    0.000000
    5    0   -3    2    6    0.000383   -0.000000
    5    0   -3    3    6    0.001513    0.000000
    5    0   -3    4    6   -0.001596    0.000000
    5    0   -3    5    6   -0.000009   -0.000000
    5    0   -3    6    6    0.001993    0.000000
    5    0   -3    7    6    0.000586    0.000000
    5    0   -3    8    6    0.002155   -0.000000
    5    0   -3    1    7    0.000082   -0.000000
    5    0   -3    2    7    0.001513   -0.000000
    5    0   -3    3    7    0.000874   -0.000000
    5    0   -3    4    7    0.000152    0.000000
    5    0   -3    5    7   -0.000215   -0.000000
    5    0   -3    6    7   -0.000630   -0.000000
    5    0   -3    7    7    0.002543    0.000000
    5    0   -3    8    7    0.000732    0.000000
    5    0   -3    1    8   -0.000111    0.000000
    5    0   -3    2    8   -0.001596   -0.000000
    5    0   -3    3    8    0.000152   -0.000000
    5    0   -3    4    8   -0.002630    0.000000
    5    0   -3    5    8   -0.000101    0.000000
    5    0   -3    6    8    0.001481   -0.000000
    5    0   -3    7    8   -0.001276   -0.000000
    5    0   -3    8    8   -0.000033    0.000000
    5    0   -2    1    1   -0.000097    0.000000
    5    0   -2    2    1   -0.000122    0.000000
    5    0   -2    3    1    0.000761   -0.000000
    5    0   -2    4    1    0.000513    0.000000
    5    0   -2    5    1   -0.000090    0.000000
    5    0   -2    6    1   -0.000108   -0.000000
    5    0   -2    7    1    0.000650    0.000000
    5    0   -2    8    1    0.000701   -0.000000
    5    0   -2    1    2    0.000852   -0.000000
    5    0   -2    2    2    0.000337    0.000000
    5    0   -2    3    2   -0.000689   -0.000000
    5    0   -2    4    2   -0.000835    0.000000
    5    0   -2    5    2    0.000108   -0.000000
    5    0   -2    6    2   -0.002712   -0.000000
    5    0   -2    7    2   -0.000548   -0.000000
    5    0   -2    8    2    0.000080   -0.000000
    5    0   -2    1    3    0.000696    0.000000
    5    0   -2    2    3   -0.001829    0.000000
    5    0   -2    3    3   -0.001687   -0.000000
    5    0   -2    4    3    0.000726    0.000000
    5    0   -2    5    3   -0.000650    0.000000
    5    0   -2    6    3   -0.000548    0.000000
    5    0   -2    7    3    0.000115   -0.000000
    5    0   -2    8    3   -0.000528   -0.000000
    5    0   -2    1    4   -0.000236    0.000000
    5    0   -2    2    4   -0.000818    0.000000
    5    0   -2    3    4   -0.001821    0.000000
    5    0   -2    4    4   -0.000322    0.000000
    5    0   -2    5    4   -0.000701   -0.000000
    5    0   -2    6    4    0.000080    0.000000
    5    0   -2    7    4   -0.000528    0.000000
    5    0   -2    8    4   -0.000124   -0.000000
    5    0   -2    1    5   -0.000783   -0.000000
    5    0   -2    2    5   -0.000029   -0.000000
    5    0   -2    3    5   -0.000482   -0.000000
    5    0   -2    4    5   -0.000220    0.000000
    5    0   -2    5    5   -0.000097   -0.000000
    5    0   -2    6    5   -0.000852   -0.000000
    5    0   -2    7    5   -0.000696    0.000000
    5    0   -2    8    5    0.000236    0.000000
    5    0   -2    1    6    0.000029   -0.000000
    5    0   -2    2    6   -0.002129    0.000000
    5    0   -2    3    6    0.000648   -0.000000
    5    0   -2    4    6   -0.002678   -0.000000
    5    0   -2    5    6    0.000122    0.000000
    5    0   -2    6    6    0.000337   -0.000000
    5    0   -2    7    6   -0.001829   -0.000000
    5    0   -2    8    6   -0.000818   -0.000000
    5    0   -2    1    7    0.000482   -0.000000
    5    0   -2    2    7    0.000648    0.000000
    5    0   -2    3    7   -0.002702    0.000000
    5    0   -2    4    7   -0.000351   -0.000000
    5    0   -2    5    7   -0.000761   -0.000000
    5    0   -2    6    7   -0.000689    0.000000
    5    0   -2    7    7   -0.001687    0.000000
    5    0   -2    8    7   -0.001821   -0.000000
    5    0   -2    1    8    0.000220    0.000000
    5    0   -2    2    8   -0.002678    0.000000
    5    0   -2    3    8   -0.000351    0.000000
    5    0   -2    4    8    0.000207    0.000000
    5    0   -2    5    8   -0.000513    0.000000
    5    0   -2    6    8   -0.000835   -0.000000
    5    0   -2    7    8    0.000726   -0.000000
    5    0   -2    8    8   -0.000322   -0.000000
    5    1   -3    1    1   -0.000052    0.000000
    5    1   -3    2    1    0.000291   -0.000000
    5    1   -3    3    1   -0.000262    0.000000
    5    1   -3    4    1   -0.000617    0.000000
    5    1   -3    5    1   -0.000104    0.000000
    5    1   -3    6    1   -0.000176   -0.000000
    5    1   -3    7    1    0.000091    0.000000
    5    1   -3    8    1   -0.000274    0.000000
    5    1   -3    1    2   -0.000135   -0.000000
    5    1   -3    2    2   -0.001826   -0.000000
    5    1   -3    3    2   -0.001330    0.000000
    5    1   -3    4    2    0.000137   -0.000000
    5    1   -3    5    2    0.000176   -0.000000
    5    1   -3    6    2    0.001267    0.000000
    5    1   -3    7    2    0.000439    0.000000
    5    1   -3    8    2    0.000173   -0.000000
    5    1   -3    1    3   -0.000076   -0.000000
    5    1   -3    2    3   -0.001285   -0.000000
    5    1   -3    3    3   -0.001793   -0.000000
    5    1   -3    4    3    0.001834    0.000000
    5    1   -3    5    3   -0.000091    0.000000
    5    1   -3    6    3    0.000439   -0.000000
    5    1   -3    7    3   -0.004470   -0.000000
    5    1   -3    8    3    0.000903   -0.000000
    5    1   -3    1    4    0.000181    0.000000
    5    1   -3    2    4    0.000163   -0.000000
    5    1   -3    3    4    0.001909   -0.000000
    5    1   -3    4    4   -0.000512    0.000000
    5    1   -3    5    4    0.000274    0.000000
    5    1   -3    6    4    0.000173    0.000000
    5    1   -3    7    4    0.000903    0.000000
    5    1   -3    8    4   -0.003084    0.000000
    5    1   -3    1    5    0.000570   -0.000000
    5    1   -3    2    5   -0.000086    0.000000
    5    1   -3    3    5   -0.000726    0.000000
    5    1   -3    4    5    0.000198    0.000000
    5    1   -3    5    5   -0.000052   -0.000000
    5    1   -3    6    5    0.000135   -0.000000
    5    1   -3    7    5    0.000076   -0.000000
    5    1   -3    8    5   -0.000181    0.000000
    5    1   -3    1    6    0.000086    0.000000
    5    1   -3    2    6   -0.000251   -0.000000
    5    1   -3    3    6   -0.000615   -0.000000
    5    1   -3    4    6   -0.000347   -0.000000
    5    1   -3    5    6   -0.000291   -0.000000
    5    1   -3    6    6   -0.001826    0.000000
    5    1   -3    7    6   -0.001285    0.000000
    5    1   -3    8    6    0.000163    0.000000
    5    1   -3    1    7    0.000726    0.000000
    5    1   -3    2    7   -0.000615    0.000000
    5    1   -3    3    7    0.001133    0.000000
    5    1   -3    4    7    0.000716   -0.000000
    5    1   -3    5    7    0.000262    0.000000
    5    1   -3    6    7   -0.001330   -0.000000
    5    1   -3    7    7   -0.001793    0.000000
    5    1   -3    8    7    0.001909    0.000000
    5    1   -3    1    8   -0.000198    0.000000
    5    1   -3    2    8   -0.000347    0.000000
    5    1   -3    3    8    0.000716    0.000000
    5    1   -3    4    8    0.003585   -0.000000
    5    1   -3    5    8    0.000617    0.000000
    5    1   -3    6    8    0.000137    0.000000
    5    1   -3    7    8    0.001834   -0.000000
    5    1   -3    8    8   -0.000512   -0.000000
    6   -2   -2    1    1   -0.000037   -0.000000
    6   -2   -2    2    1    0.000223   -0.000000
    6   -2   -2    3    1    0.000653   -0.000000
    6   -2   -2    4    1   -0.000000    0.000000
    6   -2   -2    5    1   -0.000534   -0.000000
    6   -2   -2    6    1    0.000118    0.000000
    6   -2   -2    7    1   -0.000147    0.000000
    6   -2   -2    8    1    0.000272   -0.000000
    6   -2   -2    1    2    0.000336    0.000000
    6   -2   -2    2    2    0.003773   -0.000000
    6   -2   -2    3    2    0.000210    0.000000
    6   -2   -2    4    2   -0.000000   -0.000000
    6   -2   -2    5    2   -0.000118    0.000000
    6   -2   -2    6    2   -0.000951   -0.000000
    6   -2   -2    7    2    0.000874   -0.000000
    6   -2   -2    8    2   -0.000319    0.000000
    6   -2   -2    1    3    0.000996    0.000000
    6   -2   -2    2    3    0.000205    0.000000
    6   -2   -2    3    3    0.004331   -0.000000
    6   -2   -2    4    3    0.000000   -0.000000
    6   -2   -2    5    3    0.000147    0.000000
    6   -2   -2    6    3    0.000874    0.000000
    6   -2   -2    7    3   -0.000929    0.000000
    6   -2   -2    8    3    0.001373    0.000000
    6   -2   -2    1    4   -0.000000   -0.000000
    6   -2   -2    2    4    0.000000   -0.000000
    6   -2   -2    3    4    0.000000   -0.000000
    6   -2   -2    4    4    0.003708   -0.000000
    6   -2   -2    5    4   -0.000272   -0.000000
    6   -2   -2    6    4   -0.000319   -0.000000
    6   -2   -2    7    4    0.001373   -0.000000
    6   -2   -2    8    4   -0.002329    0.000000
    6   -2   -2    1    5   -0.000394    0.000000
    6   -2   -2    2    5   -0.000048    0.000000
    6   -2   -2    3    5   -0.000278    0.000000
    6   -2   -2    4    5    0.000077   -0.000000
    6   -2   -2    5    5   -0.000037    0.000000
    6   -2   -2    6    5   -0.000336    0.000000
    6   -2   -2    7    5   -0.000996    0.000000
    6   -2   -2    8    5    0.000000   -0.000000
    6   -2   -2    1    6    0.000048    0.000000
    6   -2   -2    2    6   -0.002519    0.000000
    6   -2   -2    3    6    0.000291   -0.000000
    6   -2   -2    4    6    0.001131    0.000000
    6   -2   -2    5    6   -0.000223   -0.000000
    6   -2   -2    6    6    0.003773    0.000000
    6   -2   -2    7    6    0.000205   -0.000000
    6   -2   -2    8    6    0.000000    0.000000
    6   -2   -2    1    7    0.000278    0.000000
    6   -2   -2    2    7    0.000291    0.000000
    6   -2   -2    3    7   -0.000296   -0.000000
    6   -2   -2    4    7   -0.001186    0.000000
    6   -2   -2    5    7   -0.000653   -0.000000
    6   -2   -2    6    7    0.000210   -0.000000
    6   -2   -2    7    7    0.004331    0.000000
    6   -2   -2    8    7    0.000000    0.000000
    6   -2   -2    1    8   -0.000077   -0.000000
    6   -2   -2    2    8    0.001131   -0.000000
    6   -2   -2    3    8   -0.001186   -0.000000
    6   -2   -2    4    8   -0.000797   -0.000000
    6   -2   -2    5    8    0.000000    0.000000
    6   -2   -2    6    8   -0.000000    0.000000
    6   -2   -2    7    8    0.000000    0.000000
    6   -2   -2    8    8    0.003708    0.000000
