 written on 11Jul2025 at 20:42:38 
           4
        1957
    4    3    2    2    2    1    2    2    1    1    2    3    2    2    2
    3    3    2    2    2    1    2    2    1    1    2    2    1    1    1
    2    2    1    1    1    1    2    2    1    1    1    1    1    2    2
    1    1    1    1    1    1    2    3    2    2    2    2    2    2    2
    3    6    2    2    2    1    2    2    1    1    2    2    1    1    1
    2    2    1    1    1    1    2    2    1    1    1    1    1    2    2
    1    1    1    1    1    1    2    2    1    1    1    1    1    1    1
    2    2    1    1    1    1    1    1    1    1    2    2    1    1    1
    1    1    1    1    1    1    2    2    1    1    1    1    1    1    1
    1    1    1    2    6    2    2    2    2    2    2    2    2    2    2
    2    6    2    2    3    1    1    1    3    2    1    1    1    1    2
    2    1    1    1    1    1    2    2    1    1    1    1    1    1    2
    2    1    1    1    1    1    1    1    2    2    1    1    1    1    1
    1    1    1    2    2    1    1    1    1    1    1    1    1    1    2
    2    1    1    1    1    1    1    1    1    1    1    2    3    1    1
    1    1    1    1    1    1    1    1    1    3    1    1    1    1    1
    1    1    1    1    1    1    1    2    1    1    1    1    1    1    1
    1    1    1    1    2    2    1    1    1    1    1    1    1    1    1
    1    2    3    2    2    2    2    2    2    2    3    2    1    2    2
    1    1    1    1    2    3    1    1    1    1    1    1    1    3    2
    1    1    1    1    1    1    1    1    2    2    1    1    1    1    1
    1    1    1    1    2    2    1    1    1    1    1    1    1    1    1
    1    2    3    1    1    1    1    1    1    1    1    1    1    1    3
    1    1    1    1    1    1    1    1    1    1    1    1    2    1    1
    1    1    1    1    1    1    1    1    1    2    1    1    1    1    1
    1    1    1    1    1    1    1    2    1    1    1    1    1    1    1
    1    1    1    1    2    1    1    1    1    1    1    1    1    1    1
    1    1    2    1    1    1    1    1    1    1    1    1    2    2    1
    1    1    1    1    1    2    3    2    2    2    3    3    2    1    1
    2    2    1    1    1    1    1    2    2    1    1    1    1    1    1
    1    1    2    4    1    1    1    1    1    1    1    1    1    1    1
    4    1    1    1    1    1    1    1    1    1    1    1    1    2    1
    1    1    1    1    1    1    1    1    1    1    2    1    1    1    1
    1    1    1    1    1    1    1    1    2    1    1    1    1    1    1
    1    1    1    1    1    2    1    1    1    1    1    1    1    1    1
    1    1    1    2    1    1    1    1    1    1    1    1    1    1    1
    2    1    1    1    1    1    1    1    1    1    1    1    1    3    1
    1    1    1    1    1    1    1    1    1    1    3    2    1    1    1
    1    1    1    1    1    2    2    1    1    1    1    1    2    2    1
    1    2    4    2    2    2    1    1    1    2    2    1    1    1    1
    1    1    2    2    1    1    1    1    1    1    1    1    1    2    1
    1    1    1    1    1    1    1    1    1    1    1    2    1    1    1
    1    1    1    1    1    1    1    1    2    1    1    1    1    1    1
    1    1    1    1    1    1    2    1    1    1    1    1    1    1    1
    1    1    1    2    1    1    1    1    1    1    1    1    1    1    1
    1    2    1    1    1    1    1    1    1    1    1    1    1    2    1
    1    1    1    1    1    1    1    1    1    1    1    2    1    1    1
    1    1    1    1    1    1    1    1    2    2    1    1    1    1    1
    1    1    1    1    1    2    2    1    1    1    1    1    1    1    2
    2    1    1    1    1    2    2    1    2    2    1    2    2    1    1
    1    1    2    2    1    1    1    1    1    1    1    2    2    1    1
    1    1    1    1    1    1    1    1    2    2    1    1    1    1    1
    1    1    1    1    1    1    2    1    1    1    1    1    1    1    1
    1    1    1    1    2    1    1    1    1    1    1    1    1    1    1
    1    2    1    1    1    1    1    1    1    1    1    1    1    1    2
    1    1    1    1    1    1    1    1    1    1    1    2    1    1    1
    1    1    1    1    1    1    1    1    1    2    1    1    1    1    1
    1    1    1    1    1    1    2    1    1    1    1    1    1    1    1
    1    1    1    1    2    1    1    1    1    1    1    1    1    1    2
    2    1    1    1    1    1    1    2    2    1    1    1    2    2    2
    3    2    1    1    2    2    1    1    1    1    1    2    2    1    1
    1    1    1    1    1    1    2    3    1    1    1    1    1    1    1
    1    1    1    1    3    1    1    1    1    1    1    1    1    1    1
    1    1    2    1    1    1    1    1    1    1    1    1    1    1    2
    1    1    1    1    1    1    1    1    1    1    1    1    2    1    1
    1    1    1    1    1    1    1    1    1    2    1    1    1    1    1
    1    1    1    1    1    1    1    2    1    1    1    1    1    1    1
    1    1    1    1    2    1    1    1    1    1    1    1    1    1    1
    1    1    3    1    1    1    1    1    1    1    1    1    1    1    3
    2    1    1    1    1    1    1    1    1    2    2    1    1    1    1
    1    2    2    1    1    2    3    2    2    2    1    1    1    2    2
    1    1    1    1    1    1    2    2    1    1    1    1    1    1    1
    1    1    2    1    1    1    1    1    1    1    1    1    1    1    1
    2    1    1    1    1    1    1    1    1    1    1    1    2    1    1
    1    1    1    1    1    1    1    1    1    1    2    1    1    1    1
    1    1    1    1    1    1    1    2    1    1    1    1    1    1    1
    1    1    1    1    1    2    1    1    1    1    1    1    1    1    1
    1    1    2    1    1    1    1    1    1    1    1    1    1    1    1
    2    1    1    1    1    1    1    1    1    1    1    1    2    2    1
    1    1    1    1    1    1    1    1    1    2    2    1    1    1    1
    1    1    1    2    2    1    1    1    1    2    2    1    2    2    1
    2    2    1    1    1    1    2    2    1    1    1    1    1    1    1
    2    2    1    1    1    1    1    1    1    1    1    1    2    2    1
    1    1    1    1    1    1    1    1    1    1    2    1    1    1    1
    1    1    1    1    1    1    1    1    2    1    1    1    1    1    1
    1    1    1    1    1    2    1    1    1    1    1    1    1    1    1
    1    1    1    2    1    1    1    1    1    1    1    1    1    1    1
    2    1    1    1    1    1    1    1    1    1    1    1    1    2    1
    1    1    1    1    1    1    1    1    1    1    2    1    1    1    1
    1    1    1    1    1    1    1    1    2    1    1    1    1    1    1
    1    1    1    2    2    1    1    1    1    1    1    2    2    1    1
    1    2    2    2    4    2    1    1    2    2    1    1    1    1    1
    2    2    1    1    1    1    1    1    1    1    2    3    1    1    1
    1    1    1    1    1    1    1    1    3    1    1    1    1    1    1
    1    1    1    1    1    1    2    1    1    1    1    1    1    1    1
    1    1    1    2    1    1    1    1    1    1    1    1    1    1    1
    1    2    1    1    1    1    1    1    1    1    1    1    1    2    1
    1    1    1    1    1    1    1    1    1    1    1    2    1    1    1
    1    1    1    1    1    1    1    1    2    1    1    1    1    1    1
    1    1    1    1    1    1    4    1    1    1    1    1    1    1    1
    1    1    1    4    2    1    1    1    1    1    1    1    1    2    2
    1    1    1    1    1    2    2    1    1    2    3    3    2    2    2
    3    2    1    1    1    1    1    1    2    2    1    1    1    1    1
    1    1    1    1    2    1    1    1    1    1    1    1    1    1    1
    1    1    2    1    1    1    1    1    1    1    1    1    1    1    2
    1    1    1    1    1    1    1    1    1    1    1    1    2    1    1
    1    1    1    1    1    1    1    1    1    2    1    1    1    1    1
    1    1    1    1    1    1    1    3    1    1    1    1    1    1    1
    1    1    1    1    3    2    1    1    1    1    1    1    1    1    1
    1    2    2    1    1    1    1    1    1    1    1    1    2    2    1
    1    1    1    1    1    1    1    2    3    1    1    1    1    1    1
    1    3    2    1    1    1    1    2    2    1    2    3    2    2    2
    2    2    2    2    3    2    1    1    1    1    1    1    1    1    1
    1    2    2    1    1    1    1    1    1    1    1    1    1    1    2
    1    1    1    1    1    1    1    1    1    1    1    1    3    1    1
    1    1    1    1    1    1    1    1    1    3    2    1    1    1    1
    1    1    1    1    1    1    2    2    1    1    1    1    1    1    1
    1    1    2    2    1    1    1    1    1    1    1    1    2    2    1
    1    1    1    1    1    1    2    2    1    1    1    1    1    1    2
    2    1    1    1    1    1    2    2    1    1    1    1    2    3    1
    1    1    3    2    2    6    2    2    2    2    2    2    2    2    2
    2    2    6    2    1    1    1    1    1    1    1    1    1    1    2
    2    1    1    1    1    1    1    1    1    1    2    2    1    1    1
    1    1    1    1    1    2    2    1    1    1    1    1    1    1    2
    2    1    1    1    1    1    1    2    2    1    1    1    1    1    2
    2    1    1    1    1    2    2    1    1    1    2    2    1    1    2
    2    1    2    2    2    6    3    2    2    2    2    2    2    2    3
    2    1    1    1    1    1    1    2    2    1    1    1    1    1    2
    2    1    1    1    1    2    2    1    1    1    2    2    1    1    2
    2    1    2    2    2    3    3    2    2    2    3    2    1    1    2
    2    1    2    2    2    3    4
   -9    3    3    1    1   -0.000569   -0.000000
   -9    3    3    2    1    0.001132    0.000000
   -9    3    3    3    1    0.001132    0.000000
   -9    3    3    4    1    0.001132    0.000000
   -9    3    3    1    2   -0.001132    0.000000
   -9    3    3    2    2    0.001333   -0.000000
   -9    3    3    3    2   -0.002106    0.000000
   -9    3    3    4    2   -0.002106   -0.000000
   -9    3    3    1    3   -0.001132    0.000000
   -9    3    3    2    3   -0.002106   -0.000000
   -9    3    3    3    3    0.001333    0.000000
   -9    3    3    4    3   -0.002106    0.000000
   -9    3    3    1    4   -0.001132    0.000000
   -9    3    3    2    4   -0.002106    0.000000
   -9    3    3    3    4   -0.002106   -0.000000
   -9    3    3    4    4    0.001333   -0.000000
   -8    0    4    1    1   -0.003011   -0.000000
   -8    0    4    2    1    0.001741    0.000000
   -8    0    4    3    1    0.001741    0.000000
   -8    0    4    4    1    0.000395   -0.000000
   -8    0    4    1    2   -0.001741    0.000000
   -8    0    4    2    2   -0.000632   -0.000000
   -8    0    4    3    2   -0.000333    0.000000
   -8    0    4    4    2   -0.000744   -0.000000
   -8    0    4    1    3   -0.001741    0.000000
   -8    0    4    2    3   -0.000333   -0.000000
   -8    0    4    3    3   -0.000632    0.000000
   -8    0    4    4    3   -0.000744   -0.000000
   -8    0    4    1    4   -0.000395   -0.000000
   -8    0    4    2    4   -0.000744    0.000000
   -8    0    4    3    4   -0.000744    0.000000
   -8    0    4    4    4   -0.002962   -0.000000
   -8    1    3    1    1   -0.001490    0.000000
   -8    1    3    2    1   -0.000809    0.000000
   -8    1    3    3    1   -0.000853   -0.000000
   -8    1    3    4    1   -0.000972    0.000000
   -8    1    3    1    2    0.000809    0.000000
   -8    1    3    2    2   -0.001367    0.000000
   -8    1    3    3    2   -0.001065   -0.000000
   -8    1    3    4    2    0.000857    0.000000
   -8    1    3    1    3    0.000853   -0.000000
   -8    1    3    2    3   -0.001065    0.000000
   -8    1    3    3    3    0.001409    0.000000
   -8    1    3    4    3    0.000171    0.000000
   -8    1    3    1    4    0.000972    0.000000
   -8    1    3    2    4    0.000857   -0.000000
   -8    1    3    3    4    0.000171   -0.000000
   -8    1    3    4    4   -0.002563   -0.000000
   -8    1    4    1    1   -0.005428    0.000000
   -8    1    4    2    1    0.001281    0.000000
   -8    1    4    3    1    0.001281    0.000000
   -8    1    4    4    1   -0.003348   -0.000000
   -8    1    4    1    2   -0.001281    0.000000
   -8    1    4    2    2   -0.001543   -0.000000
   -8    1    4    3    2    0.000365   -0.000000
   -8    1    4    4    2   -0.000572   -0.000000
   -8    1    4    1    3   -0.001281    0.000000
   -8    1    4    2    3    0.000365    0.000000
   -8    1    4    3    3   -0.001543   -0.000000
   -8    1    4    4    3   -0.000572   -0.000000
   -8    1    4    1    4    0.003348   -0.000000
   -8    1    4    2    4   -0.000572    0.000000
   -8    1    4    3    4   -0.000572    0.000000
   -8    1    4    4    4   -0.002415    0.000000
   -8    2    2    1    1    0.004179    0.000000
   -8    2    2    2    1   -0.001221   -0.000000
   -8    2    2    3    1   -0.000566   -0.000000
   -8    2    2    4    1   -0.001221   -0.000000
   -8    2    2    1    2    0.001221   -0.000000
   -8    2    2    2    2   -0.001929    0.000000
   -8    2    2    3    2   -0.001123    0.000000
   -8    2    2    4    2    0.000424   -0.000000
   -8    2    2    1    3    0.000566   -0.000000
   -8    2    2    2    3   -0.001123   -0.000000
   -8    2    2    3    3    0.004620   -0.000000
   -8    2    2    4    3   -0.001123   -0.000000
   -8    2    2    1    4    0.001221   -0.000000
   -8    2    2    2    4    0.000424    0.000000
   -8    2    2    3    4   -0.001123    0.000000
   -8    2    2    4    4   -0.001929    0.000000
   -8    2    3    1    1   -0.000304    0.000000
   -8    2    3    2    1   -0.000343    0.000000
   -8    2    3    3    1    0.002653   -0.000000
   -8    2    3    4    1   -0.000120   -0.000000
   -8    2    3    1    2    0.000343    0.000000
   -8    2    3    2    2    0.000723    0.000000
   -8    2    3    3    2   -0.002459   -0.000000
   -8    2    3    4    2    0.000011   -0.000000
   -8    2    3    1    3   -0.002653   -0.000000
   -8    2    3    2    3   -0.002459    0.000000
   -8    2    3    3    3    0.003908   -0.000000
   -8    2    3    4    3   -0.000425    0.000000
   -8    2    3    1    4    0.000120   -0.000000
   -8    2    3    2    4    0.000011    0.000000
   -8    2    3    3    4   -0.000425   -0.000000
   -8    2    3    4    4   -0.000329    0.000000
   -8    2    4    1    1    0.000724    0.000000
   -8    2    4    2    1    0.000030    0.000000
   -8    2    4    3    1    0.000030    0.000000
   -8    2    4    4    1    0.001124   -0.000000
   -8    2    4    1    2   -0.000030    0.000000
   -8    2    4    2    2    0.002876   -0.000000
   -8    2    4    3    2   -0.004016   -0.000000
   -8    2    4    4    2    0.000207    0.000000
   -8    2    4    1    3   -0.000030    0.000000
   -8    2    4    2    3   -0.004016    0.000000
   -8    2    4    3    3    0.002876    0.000000
   -8    2    4    4    3    0.000207    0.000000
   -8    2    4    1    4   -0.001124   -0.000000
   -8    2    4    2    4    0.000207   -0.000000
   -8    2    4    3    4    0.000207   -0.000000
   -8    2    4    4    4    0.002122   -0.000000
   -8    3    1    1    1   -0.001490   -0.000000
   -8    3    1    2    1   -0.000972    0.000000
   -8    3    1    3    1   -0.000853   -0.000000
   -8    3    1    4    1   -0.000809    0.000000
   -8    3    1    1    2    0.000972    0.000000
   -8    3    1    2    2   -0.002563    0.000000
   -8    3    1    3    2    0.000171   -0.000000
   -8    3    1    4    2    0.000857   -0.000000
   -8    3    1    1    3    0.000853   -0.000000
   -8    3    1    2    3    0.000171    0.000000
   -8    3    1    3    3    0.001409   -0.000000
   -8    3    1    4    3   -0.001065    0.000000
   -8    3    1    1    4    0.000809    0.000000
   -8    3    1    2    4    0.000857    0.000000
   -8    3    1    3    4   -0.001065   -0.000000
   -8    3    1    4    4   -0.001367    0.000000
   -8    3    2    1    1   -0.000304   -0.000000
   -8    3    2    2    1   -0.000120   -0.000000
   -8    3    2    3    1    0.002653   -0.000000
   -8    3    2    4    1   -0.000343    0.000000
   -8    3    2    1    2    0.000120   -0.000000
   -8    3    2    2    2   -0.000329    0.000000
   -8    3    2    3    2   -0.000425   -0.000000
   -8    3    2    4    2    0.000011    0.000000
   -8    3    2    1    3   -0.002653   -0.000000
   -8    3    2    2    3   -0.000425    0.000000
   -8    3    2    3    3    0.003908    0.000000
   -8    3    2    4    3   -0.002459    0.000000
   -8    3    2    1    4    0.000343    0.000000
   -8    3    2    2    4    0.000011   -0.000000
   -8    3    2    3    4   -0.002459   -0.000000
   -8    3    2    4    4    0.000723   -0.000000
   -8    3    3    1    1    0.001323   -0.000000
   -8    3    3    2    1   -0.000952    0.000000
   -8    3    3    3    1   -0.000081    0.000000
   -8    3    3    4    1   -0.000952    0.000000
   -8    3    3    1    2    0.000952    0.000000
   -8    3    3    2    2    0.001274    0.000000
   -8    3    3    3    2   -0.000385   -0.000000
   -8    3    3    4    2   -0.000199   -0.000000
   -8    3    3    1    3    0.000081    0.000000
   -8    3    3    2    3   -0.000385    0.000000
   -8    3    3    3    3   -0.003694    0.000000
   -8    3    3    4    3   -0.000385    0.000000
   -8    3    3    1    4    0.000952    0.000000
   -8    3    3    2    4   -0.000199    0.000000
   -8    3    3    3    4   -0.000385   -0.000000
   -8    3    3    4    4    0.001274   -0.000000
   -8    3    4    1    1    0.002467   -0.000000
   -8    3    4    2    1   -0.001236    0.000000
   -8    3    4    3    1   -0.001236    0.000000
   -8    3    4    4    1   -0.000140   -0.000000
   -8    3    4    1    2    0.001236    0.000000
   -8    3    4    2    2   -0.000439    0.000000
   -8    3    4    3    2   -0.000574    0.000000
   -8    3    4    4    2   -0.000229    0.000000
   -8    3    4    1    3    0.001236    0.000000
   -8    3    4    2    3   -0.000574   -0.000000
   -8    3    4    3    3   -0.000439   -0.000000
   -8    3    4    4    3   -0.000229    0.000000
   -8    3    4    1    4    0.000140   -0.000000
   -8    3    4    2    4   -0.000229   -0.000000
   -8    3    4    3    4   -0.000229   -0.000000
   -8    3    4    4    4    0.004244   -0.000000
   -8    4    0    1    1   -0.003011    0.000000
   -8    4    0    2    1    0.000395   -0.000000
   -8    4    0    3    1    0.001741    0.000000
   -8    4    0    4    1    0.001741    0.000000
   -8    4    0    1    2   -0.000395   -0.000000
   -8    4    0    2    2   -0.002962    0.000000
   -8    4    0    3    2   -0.000744    0.000000
   -8    4    0    4    2   -0.000744    0.000000
   -8    4    0    1    3   -0.001741    0.000000
   -8    4    0    2    3   -0.000744   -0.000000
   -8    4    0    3    3   -0.000632    0.000000
   -8    4    0    4    3   -0.000333   -0.000000
   -8    4    0    1    4   -0.001741    0.000000
   -8    4    0    2    4   -0.000744   -0.000000
   -8    4    0    3    4   -0.000333    0.000000
   -8    4    0    4    4   -0.000632   -0.000000
   -8    4    1    1    1   -0.005428   -0.000000
   -8    4    1    2    1   -0.003348   -0.000000
   -8    4    1    3    1    0.001281    0.000000
   -8    4    1    4    1    0.001281    0.000000
   -8    4    1    1    2    0.003348   -0.000000
   -8    4    1    2    2   -0.002415    0.000000
   -8    4    1    3    2   -0.000572    0.000000
   -8    4    1    4    2   -0.000572    0.000000
   -8    4    1    1    3   -0.001281    0.000000
   -8    4    1    2    3   -0.000572   -0.000000
   -8    4    1    3    3   -0.001543   -0.000000
   -8    4    1    4    3    0.000365   -0.000000
   -8    4    1    1    4   -0.001281    0.000000
   -8    4    1    2    4   -0.000572   -0.000000
   -8    4    1    3    4    0.000365    0.000000
   -8    4    1    4    4   -0.001543    0.000000
   -8    4    2    1    1    0.000724    0.000000
   -8    4    2    2    1    0.001124   -0.000000
   -8    4    2    3    1    0.000030    0.000000
   -8    4    2    4    1    0.000030    0.000000
   -8    4    2    1    2   -0.001124   -0.000000
   -8    4    2    2    2    0.002122   -0.000000
   -8    4    2    3    2    0.000207   -0.000000
   -8    4    2    4    2    0.000207   -0.000000
   -8    4    2    1    3   -0.000030    0.000000
   -8    4    2    2    3    0.000207    0.000000
   -8    4    2    3    3    0.002876   -0.000000
   -8    4    2    4    3   -0.004016   -0.000000
   -8    4    2    1    4   -0.000030    0.000000
   -8    4    2    2    4    0.000207    0.000000
   -8    4    2    3    4   -0.004016    0.000000
   -8    4    2    4    4    0.002876    0.000000
   -8    4    3    1    1    0.002467    0.000000
   -8    4    3    2    1   -0.000140   -0.000000
   -8    4    3    3    1   -0.001236    0.000000
   -8    4    3    4    1   -0.001236    0.000000
   -8    4    3    1    2    0.000140   -0.000000
   -8    4    3    2    2    0.004244   -0.000000
   -8    4    3    3    2   -0.000229   -0.000000
   -8    4    3    4    2   -0.000229   -0.000000
   -8    4    3    1    3    0.001236    0.000000
   -8    4    3    2    3   -0.000229    0.000000
   -8    4    3    3    3   -0.000439    0.000000
   -8    4    3    4    3   -0.000574    0.000000
   -8    4    3    1    4    0.001236    0.000000
   -8    4    3    2    4   -0.000229    0.000000
   -8    4    3    3    4   -0.000574   -0.000000
   -8    4    3    4    4   -0.000439    0.000000
   -8    4    4    1    1   -0.004653    0.000000
   -8    4    4    2    1   -0.001012    0.000000
   -8    4    4    3    1   -0.001012    0.000000
   -8    4    4    4    1   -0.001012    0.000000
   -8    4    4    1    2    0.001012    0.000000
   -8    4    4    2    2   -0.004673   -0.000000
   -8    4    4    3    2    0.002172   -0.000000
   -8    4    4    4    2    0.002172    0.000000
   -8    4    4    1    3    0.001012    0.000000
   -8    4    4    2    3    0.002172    0.000000
   -8    4    4    3    3   -0.004673    0.000000
   -8    4    4    4    3    0.002172   -0.000000
   -8    4    4    1    4    0.001012    0.000000
   -8    4    4    2    4    0.002172   -0.000000
   -8    4    4    3    4    0.002172    0.000000
   -8    4    4    4    4   -0.004673    0.000000
   -7   -3    5    1    1   -0.001690   -0.000000
   -7   -3    5    2    1    0.000454   -0.000000
   -7   -3    5    3    1    0.000454   -0.000000
   -7   -3    5    4    1   -0.000731   -0.000000
   -7   -3    5    1    2   -0.000454   -0.000000
   -7   -3    5    2    2    0.000957   -0.000000
   -7   -3    5    3    2   -0.000633   -0.000000
   -7   -3    5    4    2   -0.000612   -0.000000
   -7   -3    5    1    3   -0.000454   -0.000000
   -7   -3    5    2    3   -0.000633    0.000000
   -7   -3    5    3    3    0.000957    0.000000
   -7   -3    5    4    3   -0.000612   -0.000000
   -7   -3    5    1    4    0.000731   -0.000000
   -7   -3    5    2    4   -0.000612    0.000000
   -7   -3    5    3    4   -0.000612    0.000000
   -7   -3    5    4    4   -0.006690   -0.000000
   -7   -2    4    1    1   -0.000370    0.000000
   -7   -2    4    2    1    0.001724   -0.000000
   -7   -2    4    3    1   -0.000175    0.000000
   -7   -2    4    4    1    0.003213   -0.000000
   -7   -2    4    1    2   -0.001724   -0.000000
   -7   -2    4    2    2   -0.000701   -0.000000
   -7   -2    4    3    2    0.002023   -0.000000
   -7   -2    4    4    2   -0.001141   -0.000000
   -7   -2    4    1    3    0.000175    0.000000
   -7   -2    4    2    3    0.002023    0.000000
   -7   -2    4    3    3    0.000341    0.000000
   -7   -2    4    4    3   -0.000925    0.000000
   -7   -2    4    1    4   -0.003213   -0.000000
   -7   -2    4    2    4   -0.001141    0.000000
   -7   -2    4    3    4   -0.000925   -0.000000
   -7   -2    4    4    4   -0.001354    0.000000
   -7   -2    5    1    1   -0.004410    0.000000
   -7   -2    5    2    1    0.000578   -0.000000
   -7   -2    5    3    1    0.000578   -0.000000
   -7   -2    5    4    1    0.003551    0.000000
   -7   -2    5    1    2   -0.000578   -0.000000
   -7   -2    5    2    2    0.002481   -0.000000
   -7   -2    5    3    2   -0.001971    0.000000
   -7   -2    5    4    2   -0.000172    0.000000
   -7   -2    5    1    3   -0.000578   -0.000000
   -7   -2    5    2    3   -0.001971   -0.000000
   -7   -2    5    3    3    0.002481    0.000000
   -7   -2    5    4    3   -0.000172    0.000000
   -7   -2    5    1    4   -0.003551    0.000000
   -7   -2    5    2    4   -0.000172   -0.000000
   -7   -2    5    3    4   -0.000172   -0.000000
   -7   -2    5    4    4   -0.002149    0.000000
   -7   -1    3    1    1    0.002550    0.000000
   -7   -1    3    2    1   -0.004873   -0.000000
   -7   -1    3    3    1   -0.002174    0.000000
   -7   -1    3    4    1   -0.004317    0.000000
   -7   -1    3    1    2    0.004873   -0.000000
   -7   -1    3    2    2    0.002227    0.000000
   -7   -1    3    3    2    0.001540    0.000000
   -7   -1    3    4    2    0.001091   -0.000000
   -7   -1    3    1    3    0.002174    0.000000
   -7   -1    3    2    3    0.001540   -0.000000
   -7   -1    3    3    3    0.001181    0.000000
   -7   -1    3    4    3   -0.000123    0.000000
   -7   -1    3    1    4    0.004317    0.000000
   -7   -1    3    2    4    0.001091    0.000000
   -7   -1    3    3    4   -0.000123   -0.000000
   -7   -1    3    4    4   -0.000974   -0.000000
   -7   -1    4    1    1    0.000058    0.000000
   -7   -1    4    2    1   -0.005114   -0.000000
   -7   -1    4    3    1    0.001551    0.000000
   -7   -1    4    4    1    0.001574    0.000000
   -7   -1    4    1    2    0.005114   -0.000000
   -7   -1    4    2    2   -0.001570    0.000000
   -7   -1    4    3    2    0.004724   -0.000000
   -7   -1    4    4    2   -0.002782   -0.000000
   -7   -1    4    1    3   -0.001551    0.000000
   -7   -1    4    2    3    0.004724    0.000000
   -7   -1    4    3    3    0.002124   -0.000000
   -7   -1    4    4    3    0.001293    0.000000
   -7   -1    4    1    4   -0.001574    0.000000
   -7   -1    4    2    4   -0.002782    0.000000
   -7   -1    4    3    4    0.001293   -0.000000
   -7   -1    4    4    4   -0.003328   -0.000000
   -7   -1    5    1    1    0.001863   -0.000000
   -7   -1    5    2    1   -0.000575   -0.000000
   -7   -1    5    3    1   -0.000575   -0.000000
   -7   -1    5    4    1   -0.001627    0.000000
   -7   -1    5    1    2    0.000575   -0.000000
   -7   -1    5    2    2   -0.002852    0.000000
   -7   -1    5    3    2    0.003066    0.000000
   -7   -1    5    4    2    0.001944    0.000000
   -7   -1    5    1    3    0.000575   -0.000000
   -7   -1    5    2    3    0.003066   -0.000000
   -7   -1    5    3    3   -0.002852   -0.000000
   -7   -1    5    4    3    0.001944    0.000000
   -7   -1    5    1    4    0.001627    0.000000
   -7   -1    5    2    4    0.001944   -0.000000
   -7   -1    5    3    4    0.001944   -0.000000
   -7   -1    5    4    4    0.003199    0.000000
   -7    0    2    1    1   -0.000522   -0.000000
   -7    0    2    2    1    0.001157    0.000000
   -7    0    2    3    1   -0.000166   -0.000000
   -7    0    2    4    1    0.001498    0.000000
   -7    0    2    1    2   -0.001157    0.000000
   -7    0    2    2    2   -0.002966   -0.000000
   -7    0    2    3    2    0.000867   -0.000000
   -7    0    2    4    2    0.000156   -0.000000
   -7    0    2    1    3    0.000166   -0.000000
   -7    0    2    2    3    0.000867    0.000000
   -7    0    2    3    3   -0.002511   -0.000000
   -7    0    2    4    3    0.001262    0.000000
   -7    0    2    1    4   -0.001498    0.000000
   -7    0    2    2    4    0.000156    0.000000
   -7    0    2    3    4    0.001262   -0.000000
   -7    0    2    4    4    0.002396    0.000000
   -7    0    3    1    1    0.004588   -0.000000
   -7    0    3    2    1   -0.002503   -0.000000
   -7    0    3    3    1   -0.000364   -0.000000
   -7    0    3    4    1    0.005033    0.000000
   -7    0    3    1    2    0.002503   -0.000000
   -7    0    3    2    2    0.002380   -0.000000
   -7    0    3    3    2   -0.000758    0.000000
   -7    0    3    4    2   -0.000637    0.000000
   -7    0    3    1    3    0.000364   -0.000000
   -7    0    3    2    3   -0.000758   -0.000000
   -7    0    3    3    3    0.000797   -0.000000
   -7    0    3    4    3    0.000538   -0.000000
   -7    0    3    1    4   -0.005033    0.000000
   -7    0    3    2    4   -0.000637   -0.000000
   -7    0    3    3    4    0.000538    0.000000
   -7    0    3    4    4    0.000967    0.000000
   -7    0    4    1    1   -0.000261   -0.000000
   -7    0    4    2    1    0.000556   -0.000000
   -7    0    4    3    1   -0.000412    0.000000
   -7    0    4    4    1   -0.002424   -0.000000
   -7    0    4    1    2   -0.000556   -0.000000
   -7    0    4    2    2   -0.002009    0.000000
   -7    0    4    3    2   -0.000855   -0.000000
   -7    0    4    4    2   -0.000435   -0.000000
   -7    0    4    1    3    0.000412    0.000000
   -7    0    4    2    3   -0.000855    0.000000
   -7    0    4    3    3    0.000460   -0.000000
   -7    0    4    4    3   -0.000505   -0.000000
   -7    0    4    1    4    0.002424   -0.000000
   -7    0    4    2    4   -0.000435    0.000000
   -7    0    4    3    4   -0.000505    0.000000
   -7    0    4    4    4   -0.001459    0.000000
   -7    0    5    1    1    0.006155   -0.000000
   -7    0    5    2    1   -0.001198   -0.000000
   -7    0    5    3    1   -0.001198   -0.000000
   -7    0    5    4    1   -0.000502   -0.000000
   -7    0    5    1    2    0.001198   -0.000000
   -7    0    5    2    2    0.002589    0.000000
   -7    0    5    3    2   -0.000859   -0.000000
   -7    0    5    4    2    0.001362    0.000000
   -7    0    5    1    3    0.001198   -0.000000
   -7    0    5    2    3   -0.000859    0.000000
   -7    0    5    3    3    0.002589   -0.000000
   -7    0    5    4    3    0.001362    0.000000
   -7    0    5    1    4    0.000502   -0.000000
   -7    0    5    2    4    0.001362   -0.000000
   -7    0    5    3    4    0.001362   -0.000000
   -7    0    5    4    4    0.000157    0.000000
   -7    1    1    1    1    0.002215   -0.000000
   -7    1    1    2    1   -0.003518   -0.000000
   -7    1    1    3    1    0.001967    0.000000
   -7    1    1    4    1   -0.003518   -0.000000
   -7    1    1    1    2    0.003518   -0.000000
   -7    1    1    2    2    0.001835    0.000000
   -7    1    1    3    2    0.000094   -0.000000
   -7    1    1    4    2    0.000650   -0.000000
   -7    1    1    1    3   -0.001967    0.000000
   -7    1    1    2    3    0.000094    0.000000
   -7    1    1    3    3   -0.001183    0.000000
   -7    1    1    4    3    0.000094    0.000000
   -7    1    1    1    4    0.003518   -0.000000
   -7    1    1    2    4    0.000650    0.000000
   -7    1    1    3    4    0.000094   -0.000000
   -7    1    1    4    4    0.001835   -0.000000
   -7    1    2    1    1    0.002041   -0.000000
   -7    1    2    2    1   -0.000540    0.000000
   -7    1    2    3    1   -0.002457   -0.000000
   -7    1    2    4    1    0.002031    0.000000
   -7    1    2    1    2    0.000540    0.000000
   -7    1    2    2    2    0.002488    0.000000
   -7    1    2    3    2   -0.000927    0.000000
   -7    1    2    4    2   -0.001447   -0.000000
   -7    1    2    1    3    0.002457   -0.000000
   -7    1    2    2    3   -0.000927   -0.000000
   -7    1    2    3    3    0.000918    0.000000
   -7    1    2    4    3   -0.000016    0.000000
   -7    1    2    1    4   -0.002031    0.000000
   -7    1    2    2    4   -0.001447    0.000000
   -7    1    2    3    4   -0.000016   -0.000000
   -7    1    2    4    4    0.003832   -0.000000
   -7    1    3    1    1   -0.000395    0.000000
   -7    1    3    2    1    0.001323   -0.000000
   -7    1    3    3    1   -0.000789   -0.000000
   -7    1    3    4    1   -0.000671    0.000000
   -7    1    3    1    2   -0.001323   -0.000000
   -7    1    3    2    2   -0.003009    0.000000
   -7    1    3    3    2   -0.000585    0.000000
   -7    1    3    4    2    0.001490   -0.000000
   -7    1    3    1    3    0.000789   -0.000000
   -7    1    3    2    3   -0.000585   -0.000000
   -7    1    3    3    3    0.000698    0.000000
   -7    1    3    4    3   -0.000242    0.000000
   -7    1    3    1    4    0.000671    0.000000
   -7    1    3    2    4    0.001490    0.000000
   -7    1    3    3    4   -0.000242   -0.000000
   -7    1    3    4    4   -0.001671   -0.000000
   -7    1    4    1    1    0.001024    0.000000
   -7    1    4    2    1    0.000487    0.000000
   -7    1    4    3    1   -0.000707    0.000000
   -7    1    4    4    1    0.000505    0.000000
   -7    1    4    1    2   -0.000487    0.000000
   -7    1    4    2    2   -0.000256    0.000000
   -7    1    4    3    2   -0.003542    0.000000
   -7    1    4    4    2   -0.000328   -0.000000
   -7    1    4    1    3    0.000707    0.000000
   -7    1    4    2    3   -0.003542   -0.000000
   -7    1    4    3    3    0.002543   -0.000000
   -7    1    4    4    3   -0.000976   -0.000000
   -7    1    4    1    4   -0.000505    0.000000
   -7    1    4    2    4   -0.000328    0.000000
   -7    1    4    3    4   -0.000976    0.000000
   -7    1    4    4    4   -0.001392   -0.000000
   -7    1    5    1    1    0.003372    0.000000
   -7    1    5    2    1    0.000532   -0.000000
   -7    1    5    3    1    0.000532   -0.000000
   -7    1    5    4    1    0.002878    0.000000
   -7    1    5    1    2   -0.000532   -0.000000
   -7    1    5    2    2    0.001994    0.000000
   -7    1    5    3    2   -0.002678   -0.000000
   -7    1    5    4    2    0.000409    0.000000
   -7    1    5    1    3   -0.000532   -0.000000
   -7    1    5    2    3   -0.002678    0.000000
   -7    1    5    3    3    0.001994   -0.000000
   -7    1    5    4    3    0.000409    0.000000
   -7    1    5    1    4   -0.002878    0.000000
   -7    1    5    2    4    0.000409   -0.000000
   -7    1    5    3    4    0.000409   -0.000000
   -7    1    5    4    4   -0.000500    0.000000
   -7    2    0    1    1   -0.000522    0.000000
   -7    2    0    2    1    0.001498    0.000000
   -7    2    0    3    1   -0.000166   -0.000000
   -7    2    0    4    1    0.001157    0.000000
   -7    2    0    1    2   -0.001498    0.000000
   -7    2    0    2    2    0.002396   -0.000000
   -7    2    0    3    2    0.001262   -0.000000
   -7    2    0    4    2    0.000156    0.000000
   -7    2    0    1    3    0.000166   -0.000000
   -7    2    0    2    3    0.001262    0.000000
   -7    2    0    3    3   -0.002511    0.000000
   -7    2    0    4    3    0.000867    0.000000
   -7    2    0    1    4   -0.001157    0.000000
   -7    2    0    2    4    0.000156   -0.000000
   -7    2    0    3    4    0.000867   -0.000000
   -7    2    0    4    4   -0.002966   -0.000000
   -7    2    1    1    1    0.002041    0.000000
   -7    2    1    2    1    0.002031    0.000000
   -7    2    1    3    1   -0.002457   -0.000000
   -7    2    1    4    1   -0.000540    0.000000
   -7    2    1    1    2   -0.002031    0.000000
   -7    2    1    2    2    0.003832   -0.000000
   -7    2    1    3    2   -0.000016   -0.000000
   -7    2    1    4    2   -0.001447    0.000000
   -7    2    1    1    3    0.002457   -0.000000
   -7    2    1    2    3   -0.000016    0.000000
   -7    2    1    3    3    0.000918    0.000000
   -7    2    1    4    3   -0.000927   -0.000000
   -7    2    1    1    4    0.000540    0.000000
   -7    2    1    2    4   -0.001447   -0.000000
   -7    2    1    3    4   -0.000927    0.000000
   -7    2    1    4    4    0.002488    0.000000
   -7    2    2    1    1    0.000767    0.000000
   -7    2    2    2    1   -0.001230   -0.000000
   -7    2    2    3    1    0.001337   -0.000000
   -7    2    2    4    1   -0.001230   -0.000000
   -7    2    2    1    2    0.001230   -0.000000
   -7    2    2    2    2   -0.004108   -0.000000
   -7    2    2    3    2   -0.000195    0.000000
   -7    2    2    4    2   -0.000368   -0.000000
   -7    2    2    1    3   -0.001337   -0.000000
   -7    2    2    2    3   -0.000195   -0.000000
   -7    2    2    3    3    0.006608    0.000000
   -7    2    2    4    3   -0.000195   -0.000000
   -7    2    2    1    4    0.001230   -0.000000
   -7    2    2    2    4   -0.000368    0.000000
   -7    2    2    3    4   -0.000195    0.000000
   -7    2    2    4    4   -0.004108    0.000000
   -7    2    3    1    1    0.000476    0.000000
   -7    2    3    2    1   -0.000608   -0.000000
   -7    2    3    3    1    0.004202   -0.000000
   -7    2    3    4    1    0.000735   -0.000000
   -7    2    3    1    2    0.000608   -0.000000
   -7    2    3    2    2    0.000636   -0.000000
   -7    2    3    3    2   -0.002211   -0.000000
   -7    2    3    4    2    0.000679   -0.000000
   -7    2    3    1    3   -0.004202   -0.000000
   -7    2    3    2    3   -0.002211    0.000000
   -7    2    3    3    3    0.000709   -0.000000
   -7    2    3    4    3    0.000687   -0.000000
   -7    2    3    1    4   -0.000735   -0.000000
   -7    2    3    2    4    0.000679    0.000000
   -7    2    3    3    4    0.000687    0.000000
   -7    2    3    4    4   -0.002172    0.000000
   -7    2    4    1    1    0.001057    0.000000
   -7    2    4    2    1    0.000638   -0.000000
   -7    2    4    3    1    0.000829    0.000000
   -7    2    4    4    1    0.001999   -0.000000
   -7    2    4    1    2   -0.000638   -0.000000
   -7    2    4    2    2    0.002443   -0.000000
   -7    2    4    3    2   -0.003829    0.000000
   -7    2    4    4    2    0.000867   -0.000000
   -7    2    4    1    3   -0.000829    0.000000
   -7    2    4    2    3   -0.003829   -0.000000
   -7    2    4    3    3   -0.000301    0.000000
   -7    2    4    4    3   -0.000785    0.000000
   -7    2    4    1    4   -0.001999   -0.000000
   -7    2    4    2    4    0.000867    0.000000
   -7    2    4    3    4   -0.000785   -0.000000
   -7    2    4    4    4    0.001910    0.000000
   -7    2    5    1    1    0.003142   -0.000000
   -7    2    5    2    1   -0.000879   -0.000000
   -7    2    5    3    1   -0.000879   -0.000000
   -7    2    5    4    1    0.001972    0.000000
   -7    2    5    1    2    0.000879   -0.000000
   -7    2    5    2    2    0.000490   -0.000000
   -7    2    5    3    2   -0.001194    0.000000
   -7    2    5    4    2   -0.000225    0.000000
   -7    2    5    1    3    0.000879   -0.000000
   -7    2    5    2    3   -0.001194   -0.000000
   -7    2    5    3    3    0.000490    0.000000
   -7    2    5    4    3   -0.000225    0.000000
   -7    2    5    1    4   -0.001972    0.000000
   -7    2    5    2    4   -0.000225   -0.000000
   -7    2    5    3    4   -0.000225   -0.000000
   -7    2    5    4    4    0.002584   -0.000000
   -7    3   -1    1    1    0.002550    0.000000
   -7    3   -1    2    1   -0.004317    0.000000
   -7    3   -1    3    1   -0.002174    0.000000
   -7    3   -1    4    1   -0.004873   -0.000000
   -7    3   -1    1    2    0.004317    0.000000
   -7    3   -1    2    2   -0.000974   -0.000000
   -7    3   -1    3    2   -0.000123   -0.000000
   -7    3   -1    4    2    0.001091    0.000000
   -7    3   -1    1    3    0.002174    0.000000
   -7    3   -1    2    3   -0.000123    0.000000
   -7    3   -1    3    3    0.001181   -0.000000
   -7    3   -1    4    3    0.001540   -0.000000
   -7    3   -1    1    4    0.004873   -0.000000
   -7    3   -1    2    4    0.001091   -0.000000
   -7    3   -1    3    4    0.001540    0.000000
   -7    3   -1    4    4    0.002227    0.000000
   -7    3    0    1    1    0.004588    0.000000
   -7    3    0    2    1    0.005033    0.000000
   -7    3    0    3    1   -0.000364   -0.000000
   -7    3    0    4    1   -0.002503   -0.000000
   -7    3    0    1    2   -0.005033    0.000000
   -7    3    0    2    2    0.000967   -0.000000
   -7    3    0    3    2    0.000538    0.000000
   -7    3    0    4    2   -0.000637   -0.000000
   -7    3    0    1    3    0.000364   -0.000000
   -7    3    0    2    3    0.000538   -0.000000
   -7    3    0    3    3    0.000797    0.000000
   -7    3    0    4    3   -0.000758   -0.000000
   -7    3    0    1    4    0.002503   -0.000000
   -7    3    0    2    4   -0.000637    0.000000
   -7    3    0    3    4   -0.000758    0.000000
   -7    3    0    4    4    0.002380   -0.000000
   -7    3    1    1    1   -0.000395   -0.000000
   -7    3    1    2    1   -0.000671    0.000000
   -7    3    1    3    1   -0.000789   -0.000000
   -7    3    1    4    1    0.001323   -0.000000
   -7    3    1    1    2    0.000671    0.000000
   -7    3    1    2    2   -0.001671   -0.000000
   -7    3    1    3    2   -0.000242    0.000000
   -7    3    1    4    2    0.001490    0.000000
   -7    3    1    1    3    0.000789   -0.000000
   -7    3    1    2    3   -0.000242   -0.000000
   -7    3    1    3    3    0.000698    0.000000
   -7    3    1    4    3   -0.000585   -0.000000
   -7    3    1    1    4   -0.001323   -0.000000
   -7    3    1    2    4    0.001490   -0.000000
   -7    3    1    3    4   -0.000585    0.000000
   -7    3    1    4    4   -0.003009   -0.000000
   -7    3    2    1    1    0.000476   -0.000000
   -7    3    2    2    1    0.000735    0.000000
   -7    3    2    3    1    0.004202   -0.000000
   -7    3    2    4    1   -0.000608   -0.000000
   -7    3    2    1    2   -0.000735    0.000000
   -7    3    2    2    2   -0.002172    0.000000
   -7    3    2    3    2    0.000687    0.000000
   -7    3    2    4    2    0.000679    0.000000
   -7    3    2    1    3   -0.004202   -0.000000
   -7    3    2    2    3    0.000687   -0.000000
   -7    3    2    3    3    0.000709    0.000000
   -7    3    2    4    3   -0.002211    0.000000
   -7    3    2    1    4    0.000608   -0.000000
   -7    3    2    2    4    0.000679   -0.000000
   -7    3    2    3    4   -0.002211   -0.000000
   -7    3    2    4    4    0.000636   -0.000000
   -7    3    3    1    1   -0.001127   -0.000000
   -7    3    3    2    1    0.003352    0.000000
   -7    3    3    3    1    0.000879   -0.000000
   -7    3    3    4    1    0.003352    0.000000
   -7    3    3    1    2   -0.003352    0.000000
   -7    3    3    2    2    0.000114    0.000000
   -7    3    3    3    2   -0.000665    0.000000
   -7    3    3    4    2    0.000510    0.000000
   -7    3    3    1    3   -0.000879   -0.000000
   -7    3    3    2    3   -0.000665   -0.000000
   -7    3    3    3    3   -0.001388   -0.000000
   -7    3    3    4    3   -0.000665   -0.000000
   -7    3    3    1    4   -0.003352    0.000000
   -7    3    3    2    4    0.000510   -0.000000
   -7    3    3    3    4   -0.000665    0.000000
   -7    3    3    4    4    0.000114   -0.000000
   -7    3    4    1    1   -0.001042   -0.000000
   -7    3    4    2    1    0.000340   -0.000000
   -7    3    4    3    1   -0.000700   -0.000000
   -7    3    4    4    1   -0.000050   -0.000000
   -7    3    4    1    2   -0.000340   -0.000000
   -7    3    4    2    2   -0.000796    0.000000
   -7    3    4    3    2   -0.000522    0.000000
   -7    3    4    4    2    0.000883    0.000000
   -7    3    4    1    3    0.000700   -0.000000
   -7    3    4    2    3   -0.000522   -0.000000
   -7    3    4    3    3   -0.002085   -0.000000
   -7    3    4    4    3    0.001204    0.000000
   -7    3    4    1    4    0.000050   -0.000000
   -7    3    4    2    4    0.000883   -0.000000
   -7    3    4    3    4    0.001204   -0.000000
   -7    3    4    4    4   -0.001998    0.000000
   -7    3    5    1    1   -0.000070   -0.000000
   -7    3    5    2    1   -0.000174   -0.000000
   -7    3    5    3    1   -0.000174   -0.000000
   -7    3    5    4    1   -0.000450   -0.000000
   -7    3    5    1    2    0.000174   -0.000000
   -7    3    5    2    2   -0.001678    0.000000
   -7    3    5    3    2    0.003019    0.000000
   -7    3    5    4    2   -0.001959    0.000000
   -7    3    5    1    3    0.000174   -0.000000
   -7    3    5    2    3    0.003019   -0.000000
   -7    3    5    3    3   -0.001678    0.000000
   -7    3    5    4    3   -0.001959    0.000000
   -7    3    5    1    4    0.000450   -0.000000
   -7    3    5    2    4   -0.001959   -0.000000
   -7    3    5    3    4   -0.001959   -0.000000
   -7    3    5    4    4    0.003838    0.000000
   -7    4   -2    1    1   -0.000370   -0.000000
   -7    4   -2    2    1    0.003213   -0.000000
   -7    4   -2    3    1   -0.000175    0.000000
   -7    4   -2    4    1    0.001724   -0.000000
   -7    4   -2    1    2   -0.003213   -0.000000
   -7    4   -2    2    2   -0.001354   -0.000000
   -7    4   -2    3    2   -0.000925   -0.000000
   -7    4   -2    4    2   -0.001141    0.000000
   -7    4   -2    1    3    0.000175    0.000000
   -7    4   -2    2    3   -0.000925    0.000000
   -7    4   -2    3    3    0.000341   -0.000000
   -7    4   -2    4    3    0.002023    0.000000
   -7    4   -2    1    4   -0.001724   -0.000000
   -7    4   -2    2    4   -0.001141   -0.000000
   -7    4   -2    3    4    0.002023   -0.000000
   -7    4   -2    4    4   -0.000701    0.000000
   -7    4   -1    1    1    0.000058   -0.000000
   -7    4   -1    2    1    0.001574    0.000000
   -7    4   -1    3    1    0.001551    0.000000
   -7    4   -1    4    1   -0.005114   -0.000000
   -7    4   -1    1    2   -0.001574    0.000000
   -7    4   -1    2    2   -0.003328   -0.000000
   -7    4   -1    3    2    0.001293   -0.000000
   -7    4   -1    4    2   -0.002782    0.000000
   -7    4   -1    1    3   -0.001551    0.000000
   -7    4   -1    2    3    0.001293    0.000000
   -7    4   -1    3    3    0.002124    0.000000
   -7    4   -1    4    3    0.004724    0.000000
   -7    4   -1    1    4    0.005114   -0.000000
   -7    4   -1    2    4   -0.002782   -0.000000
   -7    4   -1    3    4    0.004724   -0.000000
   -7    4   -1    4    4   -0.001570   -0.000000
   -7    4    0    1    1   -0.000261   -0.000000
   -7    4    0    2    1   -0.002424   -0.000000
   -7    4    0    3    1   -0.000412    0.000000
   -7    4    0    4    1    0.000556   -0.000000
   -7    4    0    1    2    0.002424   -0.000000
   -7    4    0    2    2   -0.001459   -0.000000
   -7    4    0    3    2   -0.000505    0.000000
   -7    4    0    4    2   -0.000435    0.000000
   -7    4    0    1    3    0.000412    0.000000
   -7    4    0    2    3   -0.000505   -0.000000
   -7    4    0    3    3    0.000460    0.000000
   -7    4    0    4    3   -0.000855    0.000000
   -7    4    0    1    4   -0.000556   -0.000000
   -7    4    0    2    4   -0.000435   -0.000000
   -7    4    0    3    4   -0.000855   -0.000000
   -7    4    0    4    4   -0.002009   -0.000000
   -7    4    1    1    1    0.001024   -0.000000
   -7    4    1    2    1    0.000505    0.000000
   -7    4    1    3    1   -0.000707    0.000000
   -7    4    1    4    1    0.000487    0.000000
   -7    4    1    1    2   -0.000505    0.000000
   -7    4    1    2    2   -0.001392   -0.000000
   -7    4    1    3    2   -0.000976    0.000000
   -7    4    1    4    2   -0.000328    0.000000
   -7    4    1    1    3    0.000707    0.000000
   -7    4    1    2    3   -0.000976   -0.000000
   -7    4    1    3    3    0.002543    0.000000
   -7    4    1    4    3   -0.003542   -0.000000
   -7    4    1    1    4   -0.000487    0.000000
   -7    4    1    2    4   -0.000328   -0.000000
   -7    4    1    3    4   -0.003542    0.000000
   -7    4    1    4    4   -0.000256    0.000000
   -7    4    2    1    1    0.001057    0.000000
   -7    4    2    2    1    0.001999   -0.000000
   -7    4    2    3    1    0.000829    0.000000
   -7    4    2    4    1    0.000638   -0.000000
   -7    4    2    1    2   -0.001999   -0.000000
   -7    4    2    2    2    0.001910    0.000000
   -7    4    2    3    2   -0.000785   -0.000000
   -7    4    2    4    2    0.000867    0.000000
   -7    4    2    1    3   -0.000829    0.000000
   -7    4    2    2    3   -0.000785    0.000000
   -7    4    2    3    3   -0.000301   -0.000000
   -7    4    2    4    3   -0.003829   -0.000000
   -7    4    2    1    4   -0.000638   -0.000000
   -7    4    2    2    4    0.000867   -0.000000
   -7    4    2    3    4   -0.003829    0.000000
   -7    4    2    4    4    0.002443    0.000000
   -7    4    3    1    1   -0.001042    0.000000
   -7    4    3    2    1   -0.000050   -0.000000
   -7    4    3    3    1   -0.000700   -0.000000
   -7    4    3    4    1    0.000340   -0.000000
   -7    4    3    1    2    0.000050   -0.000000
   -7    4    3    2    2   -0.001998    0.000000
   -7    4    3    3    2    0.001204   -0.000000
   -7    4    3    4    2    0.000883   -0.000000
   -7    4    3    1    3    0.000700   -0.000000
   -7    4    3    2    3    0.001204    0.000000
   -7    4    3    3    3   -0.002085   -0.000000
   -7    4    3    4    3   -0.000522   -0.000000
   -7    4    3    1    4   -0.000340   -0.000000
   -7    4    3    2    4    0.000883    0.000000
   -7    4    3    3    4   -0.000522    0.000000
   -7    4    3    4    4   -0.000796    0.000000
   -7    4    4    1    1    0.000746    0.000000
   -7    4    4    2    1   -0.002132   -0.000000
   -7    4    4    3    1    0.003893   -0.000000
   -7    4    4    4    1   -0.002132   -0.000000
   -7    4    4    1    2    0.002132   -0.000000
   -7    4    4    2    2   -0.000201    0.000000
   -7    4    4    3    2    0.001971    0.000000
   -7    4    4    4    2   -0.002602    0.000000
   -7    4    4    1    3   -0.003893   -0.000000
   -7    4    4    2    3    0.001971   -0.000000
   -7    4    4    3    3   -0.002215   -0.000000
   -7    4    4    4    3    0.001971   -0.000000
   -7    4    4    1    4    0.002132   -0.000000
   -7    4    4    2    4   -0.002602   -0.000000
   -7    4    4    3    4    0.001971    0.000000
   -7    4    4    4    4   -0.000201    0.000000
   -7    4    5    1    1   -0.002273   -0.000000
   -7    4    5    2    1    0.000329   -0.000000
   -7    4    5    3    1    0.000329   -0.000000
   -7    4    5    4    1    0.002929    0.000000
   -7    4    5    1    2   -0.000329   -0.000000
   -7    4    5    2    2    0.000086   -0.000000
   -7    4    5    3    2   -0.001875   -0.000000
   -7    4    5    4    2    0.000983    0.000000
   -7    4    5    1    3   -0.000329   -0.000000
   -7    4    5    2    3   -0.001875    0.000000
   -7    4    5    3    3    0.000086    0.000000
   -7    4    5    4    3    0.000983    0.000000
   -7    4    5    1    4   -0.002929    0.000000
   -7    4    5    2    4    0.000983   -0.000000
   -7    4    5    3    4    0.000983   -0.000000
   -7    4    5    4    4   -0.000144    0.000000
   -7    5   -3    1    1   -0.001690   -0.000000
   -7    5   -3    2    1   -0.000731   -0.000000
   -7    5   -3    3    1    0.000454   -0.000000
   -7    5   -3    4    1    0.000454    0.000000
   -7    5   -3    1    2    0.000731   -0.000000
   -7    5   -3    2    2   -0.006690    0.000000
   -7    5   -3    3    2   -0.000612    0.000000
   -7    5   -3    4    2   -0.000612    0.000000
   -7    5   -3    1    3   -0.000454   -0.000000
   -7    5   -3    2    3   -0.000612   -0.000000
   -7    5   -3    3    3    0.000957   -0.000000
   -7    5   -3    4    3   -0.000633   -0.000000
   -7    5   -3    1    4   -0.000454    0.000000
   -7    5   -3    2    4   -0.000612   -0.000000
   -7    5   -3    3    4   -0.000633    0.000000
   -7    5   -3    4    4    0.000957   -0.000000
   -7    5   -2    1    1   -0.004410   -0.000000
   -7    5   -2    2    1    0.003551    0.000000
   -7    5   -2    3    1    0.000578   -0.000000
   -7    5   -2    4    1    0.000578   -0.000000
   -7    5   -2    1    2   -0.003551    0.000000
   -7    5   -2    2    2   -0.002149    0.000000
   -7    5   -2    3    2   -0.000172   -0.000000
   -7    5   -2    4    2   -0.000172   -0.000000
   -7    5   -2    1    3   -0.000578   -0.000000
   -7    5   -2    2    3   -0.000172    0.000000
   -7    5   -2    3    3    0.002481   -0.000000
   -7    5   -2    4    3   -0.001971   -0.000000
   -7    5   -2    1    4   -0.000578   -0.000000
   -7    5   -2    2    4   -0.000172    0.000000
   -7    5   -2    3    4   -0.001971    0.000000
   -7    5   -2    4    4    0.002481   -0.000000
   -7    5   -1    1    1    0.001863    0.000000
   -7    5   -1    2    1   -0.001627    0.000000
   -7    5   -1    3    1   -0.000575   -0.000000
   -7    5   -1    4    1   -0.000575   -0.000000
   -7    5   -1    1    2    0.001627    0.000000
   -7    5   -1    2    2    0.003199    0.000000
   -7    5   -1    3    2    0.001944   -0.000000
   -7    5   -1    4    2    0.001944   -0.000000
   -7    5   -1    1    3    0.000575   -0.000000
   -7    5   -1    2    3    0.001944    0.000000
   -7    5   -1    3    3   -0.002852   -0.000000
   -7    5   -1    4    3    0.003066    0.000000
   -7    5   -1    1    4    0.000575   -0.000000
   -7    5   -1    2    4    0.001944    0.000000
   -7    5   -1    3    4    0.003066   -0.000000
   -7    5   -1    4    4   -0.002852   -0.000000
   -7    5    0    1    1    0.006155    0.000000
   -7    5    0    2    1   -0.000502   -0.000000
   -7    5    0    3    1   -0.001198   -0.000000
   -7    5    0    4    1   -0.001198   -0.000000
   -7    5    0    1    2    0.000502   -0.000000
   -7    5    0    2    2    0.000157    0.000000
   -7    5    0    3    2    0.001362   -0.000000
   -7    5    0    4    2    0.001362   -0.000000
   -7    5    0    1    3    0.001198   -0.000000
   -7    5    0    2    3    0.001362    0.000000
   -7    5    0    3    3    0.002589   -0.000000
   -7    5    0    4    3   -0.000859   -0.000000
   -7    5    0    1    4    0.001198   -0.000000
   -7    5    0    2    4    0.001362    0.000000
   -7    5    0    3    4   -0.000859    0.000000
   -7    5    0    4    4    0.002589   -0.000000
   -7    5    1    1    1    0.003372    0.000000
   -7    5    1    2    1    0.002878    0.000000
   -7    5    1    3    1    0.000532   -0.000000
   -7    5    1    4    1    0.000532   -0.000000
   -7    5    1    1    2   -0.002878    0.000000
   -7    5    1    2    2   -0.000500    0.000000
   -7    5    1    3    2    0.000409   -0.000000
   -7    5    1    4    2    0.000409   -0.000000
   -7    5    1    1    3   -0.000532   -0.000000
   -7    5    1    2    3    0.000409    0.000000
   -7    5    1    3    3    0.001994   -0.000000
   -7    5    1    4    3   -0.002678   -0.000000
   -7    5    1    1    4   -0.000532   -0.000000
   -7    5    1    2    4    0.000409    0.000000
   -7    5    1    3    4   -0.002678    0.000000
   -7    5    1    4    4    0.001994   -0.000000
   -7    5    2    1    1    0.003142    0.000000
   -7    5    2    2    1    0.001972    0.000000
   -7    5    2    3    1   -0.000879   -0.000000
   -7    5    2    4    1   -0.000879   -0.000000
   -7    5    2    1    2   -0.001972    0.000000
   -7    5    2    2    2    0.002584    0.000000
   -7    5    2    3    2   -0.000225   -0.000000
   -7    5    2    4    2   -0.000225   -0.000000
   -7    5    2    1    3    0.000879   -0.000000
   -7    5    2    2    3   -0.000225    0.000000
   -7    5    2    3    3    0.000490   -0.000000
   -7    5    2    4    3   -0.001194    0.000000
   -7    5    2    1    4    0.000879   -0.000000
   -7    5    2    2    4   -0.000225    0.000000
   -7    5    2    3    4   -0.001194   -0.000000
   -7    5    2    4    4    0.000490   -0.000000
   -7    5    3    1    1   -0.000070    0.000000
   -7    5    3    2    1   -0.000450   -0.000000
   -7    5    3    3    1   -0.000174   -0.000000
   -7    5    3    4    1   -0.000174   -0.000000
   -7    5    3    1    2    0.000450   -0.000000
   -7    5    3    2    2    0.003838    0.000000
   -7    5    3    3    2   -0.001959   -0.000000
   -7    5    3    4    2   -0.001959   -0.000000
   -7    5    3    1    3    0.000174   -0.000000
   -7    5    3    2    3   -0.001959    0.000000
   -7    5    3    3    3   -0.001678   -0.000000
   -7    5    3    4    3    0.003019    0.000000
   -7    5    3    1    4    0.000174   -0.000000
   -7    5    3    2    4   -0.001959    0.000000
   -7    5    3    3    4    0.003019   -0.000000
   -7    5    3    4    4   -0.001678   -0.000000
   -7    5    4    1    1   -0.002273   -0.000000
   -7    5    4    2    1    0.002929    0.000000
   -7    5    4    3    1    0.000329   -0.000000
   -7    5    4    4    1    0.000329   -0.000000
   -7    5    4    1    2   -0.002929    0.000000
   -7    5    4    2    2   -0.000144    0.000000
   -7    5    4    3    2    0.000983   -0.000000
   -7    5    4    4    2    0.000983   -0.000000
   -7    5    4    1    3   -0.000329   -0.000000
   -7    5    4    2    3    0.000983    0.000000
   -7    5    4    3    3    0.000086   -0.000000
   -7    5    4    4    3   -0.001875   -0.000000
   -7    5    4    1    4   -0.000329   -0.000000
   -7    5    4    2    4    0.000983    0.000000
   -7    5    4    3    4   -0.001875    0.000000
   -7    5    4    4    4    0.000086   -0.000000
   -7    5    5    1    1    0.002189   -0.000000
   -7    5    5    2    1    0.000679    0.000000
   -7    5    5    3    1    0.000679    0.000000
   -7    5    5    4    1    0.000679   -0.000000
   -7    5    5    1    2   -0.000679    0.000000
   -7    5    5    2    2   -0.004200    0.000000
   -7    5    5    3    2    0.000281   -0.000000
   -7    5    5    4    2    0.000281   -0.000000
   -7    5    5    1    3   -0.000679    0.000000
   -7    5    5    2    3    0.000281    0.000000
   -7    5    5    3    3   -0.004200    0.000000
   -7    5    5    4    3    0.000281    0.000000
   -7    5    5    1    4   -0.000679   -0.000000
   -7    5    5    2    4    0.000281    0.000000
   -7    5    5    3    4    0.000281   -0.000000
   -7    5    5    4    4   -0.004200   -0.000000
   -6   -6    6    1    1   -0.000000   -0.000000
   -6   -6    6    2    1   -0.002423   -0.000000
   -6   -6    6    3    1   -0.002423   -0.000000
   -6   -6    6    4    1   -0.002423   -0.000000
   -6   -6    6    1    2    0.002423   -0.000000
   -6   -6    6    2    2    0.000000   -0.000000
   -6   -6    6    3    2    0.000000    0.000000
   -6   -6    6    4    2    0.000000    0.000000
   -6   -6    6    1    3    0.002423   -0.000000
   -6   -6    6    2    3    0.000000    0.000000
   -6   -6    6    3    3    0.000000    0.000000
   -6   -6    6    4    3   -0.000000   -0.000000
   -6   -6    6    1    4    0.002423   -0.000000
   -6   -6    6    2    4    0.000000    0.000000
   -6   -6    6    3    4   -0.000000   -0.000000
   -6   -6    6    4    4    0.000000    0.000000
   -6   -5    5    1    1    0.000000    0.000000
   -6   -5    5    2    1    0.001223    0.000000
   -6   -5    5    3    1    0.001177    0.000000
   -6   -5    5    4    1    0.001223   -0.000000
   -6   -5    5    1    2   -0.001223    0.000000
   -6   -5    5    2    2    0.002981    0.000000
   -6   -5    5    3    2    0.001258    0.000000
   -6   -5    5    4    2   -0.000000   -0.000000
   -6   -5    5    1    3   -0.001177    0.000000
   -6   -5    5    2    3    0.001258   -0.000000
   -6   -5    5    3    3   -0.000000   -0.000000
   -6   -5    5    4    3   -0.001258    0.000000
   -6   -5    5    1    4   -0.001223   -0.000000
   -6   -5    5    2    4   -0.000000    0.000000
   -6   -5    5    3    4   -0.001258   -0.000000
   -6   -5    5    4    4   -0.002981   -0.000000
   -6   -5    6    1    1    0.003514   -0.000000
   -6   -5    6    2    1    0.000020    0.000000
   -6   -5    6    3    1    0.000020    0.000000
   -6   -5    6    4    1    0.001456   -0.000000
   -6   -5    6    1    2   -0.000020    0.000000
   -6   -5    6    2    2   -0.003479    0.000000
   -6   -5    6    3    2   -0.000085    0.000000
   -6   -5    6    4    2    0.003407    0.000000
   -6   -5    6    1    3   -0.000020    0.000000
   -6   -5    6    2    3   -0.000085   -0.000000
   -6   -5    6    3    3   -0.003479   -0.000000
   -6   -5    6    4    3    0.003407    0.000000
   -6   -5    6    1    4   -0.001456   -0.000000
   -6   -5    6    2    4    0.003407   -0.000000
   -6   -5    6    3    4    0.003407   -0.000000
   -6   -5    6    4    4   -0.006200    0.000000
   -6   -4    4    1    1   -0.000000    0.000000
   -6   -4    4    2    1    0.001366   -0.000000
   -6   -4    4    3    1    0.000386   -0.000000
   -6   -4    4    4    1    0.001366   -0.000000
   -6   -4    4    1    2   -0.001366   -0.000000
   -6   -4    4    2    2    0.002306   -0.000000
   -6   -4    4    3    2    0.000953    0.000000
   -6   -4    4    4    2    0.000000   -0.000000
   -6   -4    4    1    3   -0.000386   -0.000000
   -6   -4    4    2    3    0.000953   -0.000000
   -6   -4    4    3    3    0.000000   -0.000000
   -6   -4    4    4    3   -0.000953    0.000000
   -6   -4    4    1    4   -0.001366   -0.000000
   -6   -4    4    2    4    0.000000    0.000000
   -6   -4    4    3    4   -0.000953   -0.000000
   -6   -4    4    4    4   -0.002306    0.000000
   -6   -4    5    1    1   -0.000082    0.000000
   -6   -4    5    2    1   -0.000613    0.000000
   -6   -4    5    3    1    0.001895    0.000000
   -6   -4    5    4    1   -0.002199   -0.000000
   -6   -4    5    1    2    0.000613    0.000000
   -6   -4    5    2    2    0.000488    0.000000
   -6   -4    5    3    2   -0.002130    0.000000
   -6   -4    5    4    2    0.000029   -0.000000
   -6   -4    5    1    3   -0.001895    0.000000
   -6   -4    5    2    3   -0.002130   -0.000000
   -6   -4    5    3    3    0.002323   -0.000000
   -6   -4    5    4    3   -0.000361    0.000000
   -6   -4    5    1    4    0.002199   -0.000000
   -6   -4    5    2    4    0.000029    0.000000
   -6   -4    5    3    4   -0.000361   -0.000000
   -6   -4    5    4    4   -0.000272    0.000000
   -6   -4    6    1    1   -0.001037   -0.000000
   -6   -4    6    2    1   -0.002164    0.000000
   -6   -4    6    3    1   -0.002164    0.000000
   -6   -4    6    4    1   -0.001937    0.000000
   -6   -4    6    1    2    0.002164    0.000000
   -6   -4    6    2    2   -0.002942    0.000000
   -6   -4    6    3    2   -0.005620   -0.000000
   -6   -4    6    4    2    0.002923    0.000000
   -6   -4    6    1    3    0.002164    0.000000
   -6   -4    6    2    3   -0.005620    0.000000
   -6   -4    6    3    3   -0.002942   -0.000000
   -6   -4    6    4    3    0.002923    0.000000
   -6   -4    6    1    4    0.001937    0.000000
   -6   -4    6    2    4    0.002923   -0.000000
   -6   -4    6    3    4    0.002923   -0.000000
   -6   -4    6    4    4    0.005273    0.000000
   -6   -3    3    1    1    0.000000    0.000000
   -6   -3    3    2    1   -0.001661    0.000000
   -6   -3    3    3    1    0.001247   -0.000000
   -6   -3    3    4    1   -0.001661    0.000000
   -6   -3    3    1    2    0.001661    0.000000
   -6   -3    3    2    2   -0.002238    0.000000
   -6   -3    3    3    2    0.000640   -0.000000
   -6   -3    3    4    2   -0.000000   -0.000000
   -6   -3    3    1    3   -0.001247   -0.000000
   -6   -3    3    2    3    0.000640    0.000000
   -6   -3    3    3    3    0.000000    0.000000
   -6   -3    3    4    3   -0.000640   -0.000000
   -6   -3    3    1    4    0.001661    0.000000
   -6   -3    3    2    4   -0.000000    0.000000
   -6   -3    3    3    4   -0.000640    0.000000
   -6   -3    3    4    4    0.002238   -0.000000
   -6   -3    4    1    1    0.000542    0.000000
   -6   -3    4    2    1    0.001447    0.000000
   -6   -3    4    3    1   -0.000664    0.000000
   -6   -3    4    4    1    0.001107   -0.000000
   -6   -3    4    1    2   -0.001447    0.000000
   -6   -3    4    2    2    0.007574    0.000000
   -6   -3    4    3    2    0.002566   -0.000000
   -6   -3    4    4    2   -0.000020   -0.000000
   -6   -3    4    1    3    0.000664    0.000000
   -6   -3    4    2    3    0.002566    0.000000
   -6   -3    4    3    3   -0.000208   -0.000000
   -6   -3    4    4    3   -0.001605   -0.000000
   -6   -3    4    1    4   -0.001107   -0.000000
   -6   -3    4    2    4   -0.000020    0.000000
   -6   -3    4    3    4   -0.001605    0.000000
   -6   -3    4    4    4    0.000656   -0.000000
   -6   -3    5    1    1   -0.001070   -0.000000
   -6   -3    5    2    1    0.000067    0.000000
   -6   -3    5    3    1   -0.000513   -0.000000
   -6   -3    5    4    1   -0.002499    0.000000
   -6   -3    5    1    2   -0.000067    0.000000
   -6   -3    5    2    2   -0.004488    0.000000
   -6   -3    5    3    2   -0.000968    0.000000
   -6   -3    5    4    2   -0.001036   -0.000000
   -6   -3    5    1    3    0.000513   -0.000000
   -6   -3    5    2    3   -0.000968   -0.000000
   -6   -3    5    3    3   -0.002206   -0.000000
   -6   -3    5    4    3    0.000096   -0.000000
   -6   -3    5    1    4    0.002499    0.000000
   -6   -3    5    2    4   -0.001036    0.000000
   -6   -3    5    3    4    0.000096    0.000000
   -6   -3    5    4    4   -0.001899   -0.000000
   -6   -3    6    1    1   -0.000279   -0.000000
   -6   -3    6    2    1   -0.002937   -0.000000
   -6   -3    6    3    1   -0.002937   -0.000000
   -6   -3    6    4    1    0.001725    0.000000
   -6   -3    6    1    2    0.002937   -0.000000
   -6   -3    6    2    2   -0.000038    0.000000
   -6   -3    6    3    2   -0.007362   -0.000000
   -6   -3    6    4    2   -0.000676   -0.000000
   -6   -3    6    1    3    0.002937   -0.000000
   -6   -3    6    2    3   -0.007362    0.000000
   -6   -3    6    3    3   -0.000038    0.000000
   -6   -3    6    4    3   -0.000676   -0.000000
   -6   -3    6    1    4   -0.001725    0.000000
   -6   -3    6    2    4   -0.000676    0.000000
   -6   -3    6    3    4   -0.000676    0.000000
   -6   -3    6    4    4   -0.001913   -0.000000
   -6   -2    2    1    1    0.000000   -0.000000
   -6   -2    2    2    1   -0.003002    0.000000
   -6   -2    2    3    1    0.000783    0.000000
   -6   -2    2    4    1   -0.003002    0.000000
   -6   -2    2    1    2    0.003002    0.000000
   -6   -2    2    2    2    0.001332   -0.000000
   -6   -2    2    3    2    0.000063   -0.000000
   -6   -2    2    4    2    0.000000   -0.000000
   -6   -2    2    1    3   -0.000783    0.000000
   -6   -2    2    2    3    0.000063    0.000000
   -6   -2    2    3    3    0.000000   -0.000000
   -6   -2    2    4    3   -0.000063   -0.000000
   -6   -2    2    1    4    0.003002    0.000000
   -6   -2    2    2    4    0.000000    0.000000
   -6   -2    2    3    4   -0.000063    0.000000
   -6   -2    2    4    4   -0.001332    0.000000
   -6   -2    3    1    1    0.003577    0.000000
   -6   -2    3    2    1    0.003575    0.000000
   -6   -2    3    3    1   -0.003658   -0.000000
   -6   -2    3    4    1    0.000320    0.000000
   -6   -2    3    1    2   -0.003575    0.000000
   -6   -2    3    2    2   -0.000228   -0.000000
   -6   -2    3    3    2   -0.000916    0.000000
   -6   -2    3    4    2   -0.000583   -0.000000
   -6   -2    3    1    3    0.003658   -0.000000
   -6   -2    3    2    3   -0.000916   -0.000000
   -6   -2    3    3    3   -0.000584   -0.000000
   -6   -2    3    4    3    0.000556   -0.000000
   -6   -2    3    1    4   -0.000320    0.000000
   -6   -2    3    2    4   -0.000583    0.000000
   -6   -2    3    3    4    0.000556    0.000000
   -6   -2    3    4    4    0.003670    0.000000
   -6   -2    4    1    1    0.000012    0.000000
   -6   -2    4    2    1    0.003030    0.000000
   -6   -2    4    3    1    0.000068    0.000000
   -6   -2    4    4    1    0.000118   -0.000000
   -6   -2    4    1    2   -0.003030    0.000000
   -6   -2    4    2    2    0.001360   -0.000000
   -6   -2    4    3    2   -0.000077   -0.000000
   -6   -2    4    4    2    0.000104   -0.000000
   -6   -2    4    1    3   -0.000068    0.000000
   -6   -2    4    2    3   -0.000077    0.000000
   -6   -2    4    3    3    0.006129   -0.000000
   -6   -2    4    4    3    0.000780   -0.000000
   -6   -2    4    1    4   -0.000118   -0.000000
   -6   -2    4    2    4    0.000104    0.000000
   -6   -2    4    3    4    0.000780    0.000000
   -6   -2    4    4    4    0.000760    0.000000
   -6   -2    5    1    1    0.002360    0.000000
   -6   -2    5    2    1    0.001420    0.000000
   -6   -2    5    3    1    0.001851   -0.000000
   -6   -2    5    4    1    0.000845   -0.000000
   -6   -2    5    1    2   -0.001420    0.000000
   -6   -2    5    2    2    0.002164   -0.000000
   -6   -2    5    3    2   -0.004291    0.000000
   -6   -2    5    4    2    0.001821   -0.000000
   -6   -2    5    1    3   -0.001851   -0.000000
   -6   -2    5    2    3   -0.004291   -0.000000
   -6   -2    5    3    3    0.003143    0.000000
   -6   -2    5    4    3    0.001298   -0.000000
   -6   -2    5    1    4   -0.000845   -0.000000
   -6   -2    5    2    4    0.001821    0.000000
   -6   -2    5    3    4    0.001298    0.000000
   -6   -2    5    4    4    0.000704    0.000000
   -6   -2    6    1    1    0.002974    0.000000
   -6   -2    6    2    1    0.000089   -0.000000
   -6   -2    6    3    1    0.000089   -0.000000
   -6   -2    6    4    1    0.003862   -0.000000
   -6   -2    6    1    2   -0.000089   -0.000000
   -6   -2    6    2    2   -0.002596   -0.000000
   -6   -2    6    3    2   -0.000067    0.000000
   -6   -2    6    4    2    0.000051   -0.000000
   -6   -2    6    1    3   -0.000089   -0.000000
   -6   -2    6    2    3   -0.000067   -0.000000
   -6   -2    6    3    3   -0.002596    0.000000
   -6   -2    6    4    3    0.000051   -0.000000
   -6   -2    6    1    4   -0.003862   -0.000000
   -6   -2    6    2    4    0.000051    0.000000
   -6   -2    6    3    4    0.000051    0.000000
   -6   -2    6    4    4   -0.001757    0.000000
   -6   -1    1    1    1   -0.000000   -0.000000
   -6   -1    1    2    1   -0.000659    0.000000
   -6   -1    1    3    1    0.001433   -0.000000
   -6   -1    1    4    1   -0.000659    0.000000
   -6   -1    1    1    2    0.000659    0.000000
   -6   -1    1    2    2   -0.005202   -0.000000
   -6   -1    1    3    2   -0.000971   -0.000000
   -6   -1    1    4    2   -0.000000   -0.000000
   -6   -1    1    1    3   -0.001433   -0.000000
   -6   -1    1    2    3   -0.000971    0.000000
   -6   -1    1    3    3   -0.000000    0.000000
   -6   -1    1    4    3    0.000971   -0.000000
   -6   -1    1    1    4    0.000659    0.000000
   -6   -1    1    2    4   -0.000000    0.000000
   -6   -1    1    3    4    0.000971    0.000000
   -6   -1    1    4    4    0.005202   -0.000000
   -6   -1    2    1    1    0.001093    0.000000
   -6   -1    2    2    1   -0.002219    0.000000
   -6   -1    2    3    1   -0.001431    0.000000
   -6   -1    2    4    1   -0.002437    0.000000
   -6   -1    2    1    2    0.002219    0.000000
   -6   -1    2    2    2    0.003773    0.000000
   -6   -1    2    3    2   -0.001203   -0.000000
   -6   -1    2    4    2    0.001396    0.000000
   -6   -1    2    1    3    0.001431    0.000000
   -6   -1    2    2    3   -0.001203    0.000000
   -6   -1    2    3    3   -0.002923    0.000000
   -6   -1    2    4    3   -0.000186    0.000000
   -6   -1    2    1    4    0.002437    0.000000
   -6   -1    2    2    4    0.001396   -0.000000
   -6   -1    2    3    4   -0.000186   -0.000000
   -6   -1    2    4    4    0.001196   -0.000000
   -6   -1    3    1    1    0.002300    0.000000
   -6   -1    3    2    1   -0.003250   -0.000000
   -6   -1    3    3    1    0.001349   -0.000000
   -6   -1    3    4    1   -0.001647   -0.000000
   -6   -1    3    1    2    0.003250   -0.000000
   -6   -1    3    2    2   -0.000760    0.000000
   -6   -1    3    3    2    0.002797    0.000000
   -6   -1    3    4    2   -0.001618   -0.000000
   -6   -1    3    1    3   -0.001349   -0.000000
   -6   -1    3    2    3    0.002797   -0.000000
   -6   -1    3    3    3   -0.003050    0.000000
   -6   -1    3    4    3    0.001243   -0.000000
   -6   -1    3    1    4    0.001647   -0.000000
   -6   -1    3    2    4   -0.001618    0.000000
   -6   -1    3    3    4    0.001243    0.000000
   -6   -1    3    4    4   -0.003881   -0.000000
   -6   -1    4    1    1   -0.002910    0.000000
   -6   -1    4    2    1   -0.000175    0.000000
   -6   -1    4    3    1    0.002286    0.000000
   -6   -1    4    4    1   -0.002897   -0.000000
   -6   -1    4    1    2    0.000175    0.000000
   -6   -1    4    2    2   -0.003336   -0.000000
   -6   -1    4    3    2    0.003579    0.000000
   -6   -1    4    4    2    0.000232   -0.000000
   -6   -1    4    1    3   -0.002286    0.000000
   -6   -1    4    2    3    0.003579   -0.000000
   -6   -1    4    3    3   -0.002443   -0.000000
   -6   -1    4    4    3    0.000710   -0.000000
   -6   -1    4    1    4    0.002897   -0.000000
   -6   -1    4    2    4    0.000232    0.000000
   -6   -1    4    3    4    0.000710    0.000000
   -6   -1    4    4    4   -0.003427   -0.000000
   -6   -1    5    1    1    0.002968   -0.000000
   -6   -1    5    2    1    0.002297    0.000000
   -6   -1    5    3    1   -0.001533    0.000000
   -6   -1    5    4    1    0.000859   -0.000000
   -6   -1    5    1    2   -0.002297    0.000000
   -6   -1    5    2    2   -0.005111   -0.000000
   -6   -1    5    3    2    0.001363    0.000000
   -6   -1    5    4    2    0.002525    0.000000
   -6   -1    5    1    3    0.001533    0.000000
   -6   -1    5    2    3    0.001363   -0.000000
   -6   -1    5    3    3    0.000940    0.000000
   -6   -1    5    4    3    0.001154    0.000000
   -6   -1    5    1    4   -0.000859   -0.000000
   -6   -1    5    2    4    0.002525   -0.000000
   -6   -1    5    3    4    0.001154   -0.000000
   -6   -1    5    4    4    0.001606    0.000000
   -6   -1    6    1    1    0.005820   -0.000000
   -6   -1    6    2    1   -0.000419   -0.000000
   -6   -1    6    3    1   -0.000419   -0.000000
   -6   -1    6    4    1   -0.002446   -0.000000
   -6   -1    6    1    2    0.000419   -0.000000
   -6   -1    6    2    2    0.005807   -0.000000
   -6   -1    6    3    2   -0.002028   -0.000000
   -6   -1    6    4    2   -0.000674    0.000000
   -6   -1    6    1    3    0.000419   -0.000000
   -6   -1    6    2    3   -0.002028    0.000000
   -6   -1    6    3    3    0.005807    0.000000
   -6   -1    6    4    3   -0.000674    0.000000
   -6   -1    6    1    4    0.002446   -0.000000
   -6   -1    6    2    4   -0.000674   -0.000000
   -6   -1    6    3    4   -0.000674   -0.000000
   -6   -1    6    4    4    0.000031   -0.000000
   -6    0    0    1    1    0.000000    0.000000
   -6    0    0    2    1   -0.000929    0.000000
   -6    0    0    3    1   -0.003211   -0.000000
   -6    0    0    4    1   -0.000929    0.000000
   -6    0    0    1    2    0.000929    0.000000
   -6    0    0    2    2   -0.000000   -0.000000
   -6    0    0    3    2   -0.000000    0.000000
   -6    0    0    4    2   -0.000000    0.000000
   -6    0    0    1    3    0.003211   -0.000000
   -6    0    0    2    3   -0.000000    0.000000
   -6    0    0    3    3    0.000000    0.000000
   -6    0    0    4    3   -0.000000   -0.000000
   -6    0    0    1    4    0.000929    0.000000
   -6    0    0    2    4   -0.000000    0.000000
   -6    0    0    3    4   -0.000000   -0.000000
   -6    0    0    4    4   -0.000000   -0.000000
   -6    0    1    1    1    0.002113   -0.000000
   -6    0    1    2    1    0.001009    0.000000
   -6    0    1    3    1    0.000591    0.000000
   -6    0    1    4    1    0.000737   -0.000000
   -6    0    1    1    2   -0.001009    0.000000
   -6    0    1    2    2   -0.002771   -0.000000
   -6    0    1    3    2    0.000555   -0.000000
   -6    0    1    4    2   -0.000669   -0.000000
   -6    0    1    1    3   -0.000591    0.000000
   -6    0    1    2    3    0.000555    0.000000
   -6    0    1    3    3   -0.000898    0.000000
   -6    0    1    4    3   -0.000003    0.000000
   -6    0    1    1    4   -0.000737   -0.000000
   -6    0    1    2    4   -0.000669    0.000000
   -6    0    1    3    4   -0.000003   -0.000000
   -6    0    1    4    4    0.000048    0.000000
   -6    0    2    1    1    0.000697   -0.000000
   -6    0    2    2    1    0.005240    0.000000
   -6    0    2    3    1    0.000353    0.000000
   -6    0    2    4    1    0.005747    0.000000
   -6    0    2    1    2   -0.005240    0.000000
   -6    0    2    2    2    0.003066   -0.000000
   -6    0    2    3    2    0.000938   -0.000000
   -6    0    2    4    2    0.001219   -0.000000
   -6    0    2    1    3   -0.000353    0.000000
   -6    0    2    2    3    0.000938    0.000000
   -6    0    2    3    3   -0.000020   -0.000000
   -6    0    2    4    3    0.000014   -0.000000
   -6    0    2    1    4   -0.005747    0.000000
   -6    0    2    2    4    0.001219    0.000000
   -6    0    2    3    4    0.000014    0.000000
   -6    0    2    4    4    0.002580    0.000000
   -6    0    3    1    1   -0.000809   -0.000000
   -6    0    3    2    1    0.005848   -0.000000
   -6    0    3    3    1   -0.000616   -0.000000
   -6    0    3    4    1   -0.000079   -0.000000
   -6    0    3    1    2   -0.005848   -0.000000
   -6    0    3    2    2    0.005099   -0.000000
   -6    0    3    3    2   -0.001308    0.000000
   -6    0    3    4    2    0.001381    0.000000
   -6    0    3    1    3    0.000616   -0.000000
   -6    0    3    2    3   -0.001308   -0.000000
   -6    0    3    3    3    0.000709   -0.000000
   -6    0    3    4    3   -0.000659   -0.000000
   -6    0    3    1    4    0.000079   -0.000000
   -6    0    3    2    4    0.001381   -0.000000
   -6    0    3    3    4   -0.000659    0.000000
   -6    0    3    4    4   -0.000782    0.000000
   -6    0    4    1    1   -0.004087   -0.000000
   -6    0    4    2    1    0.001703   -0.000000
   -6    0    4    3    1   -0.002341    0.000000
   -6    0    4    4    1   -0.000092   -0.000000
   -6    0    4    1    2   -0.001703   -0.000000
   -6    0    4    2    2   -0.002526   -0.000000
   -6    0    4    3    2   -0.002736    0.000000
   -6    0    4    4    2    0.000473   -0.000000
   -6    0    4    1    3    0.002341    0.000000
   -6    0    4    2    3   -0.002736   -0.000000
   -6    0    4    3    3    0.001636    0.000000
   -6    0    4    4    3   -0.000483   -0.000000
   -6    0    4    1    4    0.000092   -0.000000
   -6    0    4    2    4    0.000473    0.000000
   -6    0    4    3    4   -0.000483    0.000000
   -6    0    4    4    4    0.001627   -0.000000
   -6    0    5    1    1   -0.001247   -0.000000
   -6    0    5    2    1    0.003900   -0.000000
   -6    0    5    3    1   -0.002776    0.000000
   -6    0    5    4    1   -0.001856    0.000000
   -6    0    5    1    2   -0.003900   -0.000000
   -6    0    5    2    2   -0.003874   -0.000000
   -6    0    5    3    2    0.002169    0.000000
   -6    0    5    4    2    0.001846    0.000000
[...]
    7    0   -4    2    1   -0.000556    0.000000
    7    0   -4    3    1    0.000412   -0.000000
    7    0   -4    4    1    0.002424    0.000000
    7    0   -4    1    2    0.000556    0.000000
    7    0   -4    2    2   -0.002009   -0.000000
    7    0   -4    3    2   -0.000855   -0.000000
    7    0   -4    4    2   -0.000435   -0.000000
    7    0   -4    1    3   -0.000412   -0.000000
    7    0   -4    2    3   -0.000855    0.000000
    7    0   -4    3    3    0.000460    0.000000
    7    0   -4    4    3   -0.000505   -0.000000
    7    0   -4    1    4   -0.002424    0.000000
    7    0   -4    2    4   -0.000435    0.000000
    7    0   -4    3    4   -0.000505    0.000000
    7    0   -4    4    4   -0.001459   -0.000000
    7    0   -3    1    1    0.004588    0.000000
    7    0   -3    2    1    0.002503    0.000000
    7    0   -3    3    1    0.000364    0.000000
    7    0   -3    4    1   -0.005033   -0.000000
    7    0   -3    1    2   -0.002503    0.000000
    7    0   -3    2    2    0.002380    0.000000
    7    0   -3    3    2   -0.000758    0.000000
    7    0   -3    4    2   -0.000637    0.000000
    7    0   -3    1    3   -0.000364    0.000000
    7    0   -3    2    3   -0.000758   -0.000000
    7    0   -3    3    3    0.000797    0.000000
    7    0   -3    4    3    0.000538   -0.000000
    7    0   -3    1    4    0.005033   -0.000000
    7    0   -3    2    4   -0.000637   -0.000000
    7    0   -3    3    4    0.000538    0.000000
    7    0   -3    4    4    0.000967   -0.000000
    7    0   -2    1    1   -0.000522    0.000000
    7    0   -2    2    1   -0.001157   -0.000000
    7    0   -2    3    1    0.000166    0.000000
    7    0   -2    4    1   -0.001498   -0.000000
    7    0   -2    1    2    0.001157   -0.000000
    7    0   -2    2    2   -0.002966    0.000000
    7    0   -2    3    2    0.000867   -0.000000
    7    0   -2    4    2    0.000156   -0.000000
    7    0   -2    1    3   -0.000166    0.000000
    7    0   -2    2    3    0.000867    0.000000
    7    0   -2    3    3   -0.002511    0.000000
    7    0   -2    4    3    0.001262    0.000000
    7    0   -2    1    4    0.001498   -0.000000
    7    0   -2    2    4    0.000156    0.000000
    7    0   -2    3    4    0.001262   -0.000000
    7    0   -2    4    4    0.002396   -0.000000
    7    1   -5    1    1    0.001863    0.000000
    7    1   -5    2    1    0.000575    0.000000
    7    1   -5    3    1    0.000575    0.000000
    7    1   -5    4    1    0.001627   -0.000000
    7    1   -5    1    2   -0.000575    0.000000
    7    1   -5    2    2   -0.002852   -0.000000
    7    1   -5    3    2    0.003066    0.000000
    7    1   -5    4    2    0.001944    0.000000
    7    1   -5    1    3   -0.000575    0.000000
    7    1   -5    2    3    0.003066   -0.000000
    7    1   -5    3    3   -0.002852    0.000000
    7    1   -5    4    3    0.001944    0.000000
    7    1   -5    1    4   -0.001627   -0.000000
    7    1   -5    2    4    0.001944   -0.000000
    7    1   -5    3    4    0.001944   -0.000000
    7    1   -5    4    4    0.003199   -0.000000
    7    1   -4    1    1    0.000058   -0.000000
    7    1   -4    2    1    0.005114    0.000000
    7    1   -4    3    1   -0.001551   -0.000000
    7    1   -4    4    1   -0.001574   -0.000000
    7    1   -4    1    2   -0.005114    0.000000
    7    1   -4    2    2   -0.001570   -0.000000
    7    1   -4    3    2    0.004724   -0.000000
    7    1   -4    4    2   -0.002782   -0.000000
    7    1   -4    1    3    0.001551   -0.000000
    7    1   -4    2    3    0.004724    0.000000
    7    1   -4    3    3    0.002124    0.000000
    7    1   -4    4    3    0.001293    0.000000
    7    1   -4    1    4    0.001574   -0.000000
    7    1   -4    2    4   -0.002782    0.000000
    7    1   -4    3    4    0.001293   -0.000000
    7    1   -4    4    4   -0.003328    0.000000
    7    1   -3    1    1    0.002550   -0.000000
    7    1   -3    2    1    0.004873    0.000000
    7    1   -3    3    1    0.002174   -0.000000
    7    1   -3    4    1    0.004317   -0.000000
    7    1   -3    1    2   -0.004873    0.000000
    7    1   -3    2    2    0.002227   -0.000000
    7    1   -3    3    2    0.001540    0.000000
    7    1   -3    4    2    0.001091   -0.000000
    7    1   -3    1    3   -0.002174   -0.000000
    7    1   -3    2    3    0.001540   -0.000000
    7    1   -3    3    3    0.001181   -0.000000
    7    1   -3    4    3   -0.000123    0.000000
    7    1   -3    1    4   -0.004317   -0.000000
    7    1   -3    2    4    0.001091    0.000000
    7    1   -3    3    4   -0.000123   -0.000000
    7    1   -3    4    4   -0.000974    0.000000
    7    2   -5    1    1   -0.004410   -0.000000
    7    2   -5    2    1   -0.000578    0.000000
    7    2   -5    3    1   -0.000578    0.000000
    7    2   -5    4    1   -0.003551   -0.000000
    7    2   -5    1    2    0.000578    0.000000
    7    2   -5    2    2    0.002481    0.000000
    7    2   -5    3    2   -0.001971    0.000000
    7    2   -5    4    2   -0.000172    0.000000
    7    2   -5    1    3    0.000578    0.000000
    7    2   -5    2    3   -0.001971   -0.000000
    7    2   -5    3    3    0.002481   -0.000000
    7    2   -5    4    3   -0.000172    0.000000
    7    2   -5    1    4    0.003551   -0.000000
    7    2   -5    2    4   -0.000172   -0.000000
    7    2   -5    3    4   -0.000172   -0.000000
    7    2   -5    4    4   -0.002149   -0.000000
    7    2   -4    1    1   -0.000370   -0.000000
    7    2   -4    2    1   -0.001724    0.000000
    7    2   -4    3    1    0.000175   -0.000000
    7    2   -4    4    1   -0.003213    0.000000
    7    2   -4    1    2    0.001724    0.000000
    7    2   -4    2    2   -0.000701    0.000000
    7    2   -4    3    2    0.002023   -0.000000
    7    2   -4    4    2   -0.001141   -0.000000
    7    2   -4    1    3   -0.000175   -0.000000
    7    2   -4    2    3    0.002023    0.000000
    7    2   -4    3    3    0.000341   -0.000000
    7    2   -4    4    3   -0.000925    0.000000
    7    2   -4    1    4    0.003213    0.000000
    7    2   -4    2    4   -0.001141    0.000000
    7    2   -4    3    4   -0.000925   -0.000000
    7    2   -4    4    4   -0.001354   -0.000000
    7    3   -5    1    1   -0.001690    0.000000
    7    3   -5    2    1   -0.000454    0.000000
    7    3   -5    3    1   -0.000454    0.000000
    7    3   -5    4    1    0.000731    0.000000
    7    3   -5    1    2    0.000454    0.000000
    7    3   -5    2    2    0.000957    0.000000
    7    3   -5    3    2   -0.000633   -0.000000
    7    3   -5    4    2   -0.000612   -0.000000
    7    3   -5    1    3    0.000454    0.000000
    7    3   -5    2    3   -0.000633    0.000000
    7    3   -5    3    3    0.000957   -0.000000
    7    3   -5    4    3   -0.000612   -0.000000
    7    3   -5    1    4   -0.000731    0.000000
    7    3   -5    2    4   -0.000612    0.000000
    7    3   -5    3    4   -0.000612    0.000000
    7    3   -5    4    4   -0.006690    0.000000
    8   -4   -4    1    1   -0.004653   -0.000000
    8   -4   -4    2    1    0.001012   -0.000000
    8   -4   -4    3    1    0.001012   -0.000000
    8   -4   -4    4    1    0.001012   -0.000000
    8   -4   -4    1    2   -0.001012   -0.000000
    8   -4   -4    2    2   -0.004673    0.000000
    8   -4   -4    3    2    0.002172   -0.000000
    8   -4   -4    4    2    0.002172    0.000000
    8   -4   -4    1    3   -0.001012   -0.000000
    8   -4   -4    2    3    0.002172    0.000000
    8   -4   -4    3    3   -0.004673   -0.000000
    8   -4   -4    4    3    0.002172   -0.000000
    8   -4   -4    1    4   -0.001012   -0.000000
    8   -4   -4    2    4    0.002172   -0.000000
    8   -4   -4    3    4    0.002172    0.000000
    8   -4   -4    4    4   -0.004673   -0.000000
    8   -4   -3    1    1    0.002467   -0.000000
    8   -4   -3    2    1    0.000140    0.000000
    8   -4   -3    3    1    0.001236   -0.000000
    8   -4   -3    4    1    0.001236   -0.000000
    8   -4   -3    1    2   -0.000140    0.000000
    8   -4   -3    2    2    0.004244    0.000000
    8   -4   -3    3    2   -0.000229   -0.000000
    8   -4   -3    4    2   -0.000229   -0.000000
    8   -4   -3    1    3   -0.001236   -0.000000
    8   -4   -3    2    3   -0.000229    0.000000
    8   -4   -3    3    3   -0.000439   -0.000000
    8   -4   -3    4    3   -0.000574    0.000000
    8   -4   -3    1    4   -0.001236   -0.000000
    8   -4   -3    2    4   -0.000229    0.000000
    8   -4   -3    3    4   -0.000574   -0.000000
    8   -4   -3    4    4   -0.000439   -0.000000
    8   -4   -2    1    1    0.000724   -0.000000
    8   -4   -2    2    1   -0.001124    0.000000
    8   -4   -2    3    1   -0.000030   -0.000000
    8   -4   -2    4    1   -0.000030   -0.000000
    8   -4   -2    1    2    0.001124    0.000000
    8   -4   -2    2    2    0.002122    0.000000
    8   -4   -2    3    2    0.000207   -0.000000
    8   -4   -2    4    2    0.000207   -0.000000
    8   -4   -2    1    3    0.000030   -0.000000
    8   -4   -2    2    3    0.000207    0.000000
    8   -4   -2    3    3    0.002876    0.000000
    8   -4   -2    4    3   -0.004016   -0.000000
    8   -4   -2    1    4    0.000030   -0.000000
    8   -4   -2    2    4    0.000207    0.000000
    8   -4   -2    3    4   -0.004016    0.000000
    8   -4   -2    4    4    0.002876   -0.000000
    8   -4   -1    1    1   -0.005428    0.000000
    8   -4   -1    2    1    0.003348    0.000000
    8   -4   -1    3    1   -0.001281   -0.000000
    8   -4   -1    4    1   -0.001281   -0.000000
    8   -4   -1    1    2   -0.003348    0.000000
    8   -4   -1    2    2   -0.002415   -0.000000
    8   -4   -1    3    2   -0.000572    0.000000
    8   -4   -1    4    2   -0.000572    0.000000
    8   -4   -1    1    3    0.001281   -0.000000
    8   -4   -1    2    3   -0.000572   -0.000000
    8   -4   -1    3    3   -0.001543    0.000000
    8   -4   -1    4    3    0.000365   -0.000000
    8   -4   -1    1    4    0.001281   -0.000000
    8   -4   -1    2    4   -0.000572   -0.000000
    8   -4   -1    3    4    0.000365    0.000000
    8   -4   -1    4    4   -0.001543   -0.000000
    8   -4    0    1    1   -0.003011   -0.000000
    8   -4    0    2    1   -0.000395    0.000000
    8   -4    0    3    1   -0.001741   -0.000000
    8   -4    0    4    1   -0.001741   -0.000000
    8   -4    0    1    2    0.000395    0.000000
    8   -4    0    2    2   -0.002962   -0.000000
    8   -4    0    3    2   -0.000744    0.000000
    8   -4    0    4    2   -0.000744    0.000000
    8   -4    0    1    3    0.001741   -0.000000
    8   -4    0    2    3   -0.000744   -0.000000
    8   -4    0    3    3   -0.000632   -0.000000
    8   -4    0    4    3   -0.000333   -0.000000
    8   -4    0    1    4    0.001741   -0.000000
    8   -4    0    2    4   -0.000744   -0.000000
    8   -4    0    3    4   -0.000333    0.000000
    8   -4    0    4    4   -0.000632    0.000000
    8   -3   -4    1    1    0.002467    0.000000
    8   -3   -4    2    1    0.001236   -0.000000
    8   -3   -4    3    1    0.001236   -0.000000
    8   -3   -4    4    1    0.000140    0.000000
    8   -3   -4    1    2   -0.001236   -0.000000
    8   -3   -4    2    2   -0.000439   -0.000000
    8   -3   -4    3    2   -0.000574    0.000000
    8   -3   -4    4    2   -0.000229    0.000000
    8   -3   -4    1    3   -0.001236   -0.000000
    8   -3   -4    2    3   -0.000574   -0.000000
    8   -3   -4    3    3   -0.000439    0.000000
    8   -3   -4    4    3   -0.000229    0.000000
    8   -3   -4    1    4   -0.000140    0.000000
    8   -3   -4    2    4   -0.000229   -0.000000
    8   -3   -4    3    4   -0.000229   -0.000000
    8   -3   -4    4    4    0.004244    0.000000
    8   -3   -3    1    1    0.001323    0.000000
    8   -3   -3    2    1    0.000952   -0.000000
    8   -3   -3    3    1    0.000081   -0.000000
    8   -3   -3    4    1    0.000952   -0.000000
    8   -3   -3    1    2   -0.000952   -0.000000
    8   -3   -3    2    2    0.001274   -0.000000
    8   -3   -3    3    2   -0.000385   -0.000000
    8   -3   -3    4    2   -0.000199   -0.000000
    8   -3   -3    1    3   -0.000081   -0.000000
    8   -3   -3    2    3   -0.000385    0.000000
    8   -3   -3    3    3   -0.003694   -0.000000
    8   -3   -3    4    3   -0.000385    0.000000
    8   -3   -3    1    4   -0.000952   -0.000000
    8   -3   -3    2    4   -0.000199    0.000000
    8   -3   -3    3    4   -0.000385   -0.000000
    8   -3   -3    4    4    0.001274    0.000000
    8   -3   -2    1    1   -0.000304    0.000000
    8   -3   -2    2    1    0.000120    0.000000
    8   -3   -2    3    1   -0.002653    0.000000
    8   -3   -2    4    1    0.000343   -0.000000
    8   -3   -2    1    2   -0.000120    0.000000
    8   -3   -2    2    2   -0.000329   -0.000000
    8   -3   -2    3    2   -0.000425   -0.000000
    8   -3   -2    4    2    0.000011    0.000000
    8   -3   -2    1    3    0.002653    0.000000
    8   -3   -2    2    3   -0.000425    0.000000
    8   -3   -2    3    3    0.003908   -0.000000
    8   -3   -2    4    3   -0.002459    0.000000
    8   -3   -2    1    4   -0.000343   -0.000000
    8   -3   -2    2    4    0.000011   -0.000000
    8   -3   -2    3    4   -0.002459   -0.000000
    8   -3   -2    4    4    0.000723    0.000000
    8   -3   -1    1    1   -0.001490    0.000000
    8   -3   -1    2    1    0.000972   -0.000000
    8   -3   -1    3    1    0.000853    0.000000
    8   -3   -1    4    1    0.000809   -0.000000
    8   -3   -1    1    2   -0.000972   -0.000000
    8   -3   -1    2    2   -0.002563   -0.000000
    8   -3   -1    3    2    0.000171   -0.000000
    8   -3   -1    4    2    0.000857   -0.000000
    8   -3   -1    1    3   -0.000853    0.000000
    8   -3   -1    2    3    0.000171    0.000000
    8   -3   -1    3    3    0.001409    0.000000
    8   -3   -1    4    3   -0.001065    0.000000
    8   -3   -1    1    4   -0.000809   -0.000000
    8   -3   -1    2    4    0.000857    0.000000
    8   -3   -1    3    4   -0.001065   -0.000000
    8   -3   -1    4    4   -0.001367   -0.000000
    8   -2   -4    1    1    0.000724   -0.000000
    8   -2   -4    2    1   -0.000030   -0.000000
    8   -2   -4    3    1   -0.000030   -0.000000
    8   -2   -4    4    1   -0.001124    0.000000
    8   -2   -4    1    2    0.000030   -0.000000
    8   -2   -4    2    2    0.002876    0.000000
    8   -2   -4    3    2   -0.004016   -0.000000
    8   -2   -4    4    2    0.000207    0.000000
    8   -2   -4    1    3    0.000030   -0.000000
    8   -2   -4    2    3   -0.004016    0.000000
    8   -2   -4    3    3    0.002876   -0.000000
    8   -2   -4    4    3    0.000207    0.000000
    8   -2   -4    1    4    0.001124    0.000000
    8   -2   -4    2    4    0.000207   -0.000000
    8   -2   -4    3    4    0.000207   -0.000000
    8   -2   -4    4    4    0.002122    0.000000
    8   -2   -3    1    1   -0.000304   -0.000000
    8   -2   -3    2    1    0.000343   -0.000000
    8   -2   -3    3    1   -0.002653    0.000000
    8   -2   -3    4    1    0.000120    0.000000
    8   -2   -3    1    2   -0.000343   -0.000000
    8   -2   -3    2    2    0.000723   -0.000000
    8   -2   -3    3    2   -0.002459   -0.000000
    8   -2   -3    4    2    0.000011   -0.000000
    8   -2   -3    1    3    0.002653    0.000000
    8   -2   -3    2    3   -0.002459    0.000000
    8   -2   -3    3    3    0.003908    0.000000
    8   -2   -3    4    3   -0.000425    0.000000
    8   -2   -3    1    4   -0.000120    0.000000
    8   -2   -3    2    4    0.000011    0.000000
    8   -2   -3    3    4   -0.000425   -0.000000
    8   -2   -3    4    4   -0.000329   -0.000000
    8   -2   -2    1    1    0.004179   -0.000000
    8   -2   -2    2    1    0.001221    0.000000
    8   -2   -2    3    1    0.000566    0.000000
    8   -2   -2    4    1    0.001221    0.000000
    8   -2   -2    1    2   -0.001221    0.000000
    8   -2   -2    2    2   -0.001929   -0.000000
    8   -2   -2    3    2   -0.001123    0.000000
    8   -2   -2    4    2    0.000424   -0.000000
    8   -2   -2    1    3   -0.000566    0.000000
    8   -2   -2    2    3   -0.001123   -0.000000
    8   -2   -2    3    3    0.004620    0.000000
    8   -2   -2    4    3   -0.001123   -0.000000
    8   -2   -2    1    4   -0.001221    0.000000
    8   -2   -2    2    4    0.000424    0.000000
    8   -2   -2    3    4   -0.001123    0.000000
    8   -2   -2    4    4   -0.001929   -0.000000
    8   -1   -4    1    1   -0.005428   -0.000000
    8   -1   -4    2    1   -0.001281   -0.000000
    8   -1   -4    3    1   -0.001281   -0.000000
    8   -1   -4    4    1    0.003348    0.000000
    8   -1   -4    1    2    0.001281   -0.000000
    8   -1   -4    2    2   -0.001543    0.000000
    8   -1   -4    3    2    0.000365   -0.000000
    8   -1   -4    4    2   -0.000572   -0.000000
    8   -1   -4    1    3    0.001281   -0.000000
    8   -1   -4    2    3    0.000365    0.000000
    8   -1   -4    3    3   -0.001543    0.000000
    8   -1   -4    4    3   -0.000572   -0.000000
    8   -1   -4    1    4   -0.003348    0.000000
    8   -1   -4    2    4   -0.000572    0.000000
    8   -1   -4    3    4   -0.000572    0.000000
    8   -1   -4    4    4   -0.002415   -0.000000
    8   -1   -3    1    1   -0.001490   -0.000000
    8   -1   -3    2    1    0.000809   -0.000000
    8   -1   -3    3    1    0.000853    0.000000
    8   -1   -3    4    1    0.000972   -0.000000
    8   -1   -3    1    2   -0.000809   -0.000000
    8   -1   -3    2    2   -0.001367   -0.000000
    8   -1   -3    3    2   -0.001065   -0.000000
    8   -1   -3    4    2    0.000857    0.000000
    8   -1   -3    1    3   -0.000853    0.000000
    8   -1   -3    2    3   -0.001065    0.000000
    8   -1   -3    3    3    0.001409   -0.000000
    8   -1   -3    4    3    0.000171    0.000000
    8   -1   -3    1    4   -0.000972   -0.000000
    8   -1   -3    2    4    0.000857   -0.000000
    8   -1   -3    3    4    0.000171   -0.000000
    8   -1   -3    4    4   -0.002563    0.000000
    8    0   -4    1    1   -0.003011    0.000000
    8    0   -4    2    1   -0.001741   -0.000000
    8    0   -4    3    1   -0.001741   -0.000000
    8    0   -4    4    1   -0.000395    0.000000
    8    0   -4    1    2    0.001741   -0.000000
    8    0   -4    2    2   -0.000632    0.000000
    8    0   -4    3    2   -0.000333    0.000000
    8    0   -4    4    2   -0.000744   -0.000000
    8    0   -4    1    3    0.001741   -0.000000
    8    0   -4    2    3   -0.000333   -0.000000
    8    0   -4    3    3   -0.000632   -0.000000
    8    0   -4    4    3   -0.000744   -0.000000
    8    0   -4    1    4    0.000395    0.000000
    8    0   -4    2    4   -0.000744    0.000000
    8    0   -4    3    4   -0.000744    0.000000
    8    0   -4    4    4   -0.002962    0.000000
    9   -3   -3    1    1   -0.000569    0.000000
    9   -3   -3    2    1   -0.001132   -0.000000
    9   -3   -3    3    1   -0.001132   -0.000000
    9   -3   -3    4    1   -0.001132   -0.000000
    9   -3   -3    1    2    0.001132   -0.000000
    9   -3   -3    2    2    0.001333    0.000000
    9   -3   -3    3    2   -0.002106    0.000000
    9   -3   -3    4    2   -0.002106   -0.000000
    9   -3   -3    1    3    0.001132   -0.000000
    9   -3   -3    2    3   -0.002106   -0.000000
    9   -3   -3    3    3    0.001333   -0.000000
    9   -3   -3    4    3   -0.002106    0.000000
    9   -3   -3    1    4    0.001132   -0.000000
    9   -3   -3    2    4   -0.002106    0.000000
    9   -3   -3    3    4   -0.002106   -0.000000
    9   -3   -3    4    4    0.001333    0.000000
