
             +---------------------------------------------------+
             |                                                   |
             |                   WANNIER90                       |
             |                                                   |
             +---------------------------------------------------+
             |                                                   |
             |        Welcome to the Maximally-Localized         |
             |        Generalized Wannier Functions code         |
             |            http://www.wannier.org                 |
             |                                                   |
             |                                                   |
             |  Wannier90 Developer Group:                       |
             |    Giovanni Pizzi    (EPFL)                       |
             |    Valerio Vitale    (Cambridge)                  |
             |    David Vanderbilt  (Rutgers University)         |
             |    Nicola Marzari    (EPFL)                       |
             |    Ivo Souza         (Universidad del Pais Vasco) |
             |    Arash A. Mostofi  (Imperial College London)    |
             |    Jonathan R. Yates (University of Oxford)       |
             |                                                   |
             |  For the full list of Wannier90 3.x authors,      |
             |  please check the code documentation and the      |
             |  README on the GitHub page of the code            |
             |                                                   |
             |                                                   |
             |  Please cite                                      |
             |                                                   |
             |  [ref] "Wannier90 as a community code:            |
             |        new features and applications",            |
             |        G. Pizzi et al., J. Phys. Cond. Matt. 32,  |
             |        165902 (2020).                             |
             |        http://doi.org/10.1088/1361-648X/ab51ff    |
             |                                                   |
             |  in any publications arising from the use of      |
             |  this code. For the method please cite            |
             |                                                   |
             |  [ref] "Maximally Localized Generalised Wannier   |
             |         Functions for Composite Energy Bands"     |
             |         N. Marzari and D. Vanderbilt              |
             |         Phys. Rev. B 56 12847 (1997)              |
             |                                                   |
             |  [ref] "Maximally Localized Wannier Functions     |
             |         for Entangled Energy Bands"               |
             |         I. Souza, N. Marzari and D. Vanderbilt    |
             |         Phys. Rev. B 65 035109 (2001)             |
             |                                                   |
             |                                                   |
             | Copyright (c) 1996-2020                           |
             |        The Wannier90 Developer Group and          |
             |        individual contributors                    |
             |                                                   |
             |      Release: 3.1.0        5th March    2020      |
             |                                                   |
             | This program is free software; you can            |
             | redistribute it and/or modify it under the terms  |
             | of the GNU General Public License as published by |
             | the Free Software Foundation; either version 2 of |
             | the License, or (at your option) any later version|
             |                                                   |
             | This program is distributed in the hope that it   |
             | will be useful, but WITHOUT ANY WARRANTY; without |
             | even the implied warranty of MERCHANTABILITY or   |
             | FITNESS FOR A PARTICULAR PURPOSE. See the GNU     |
             | General Public License for more details.          |
             |                                                   |
             | You should have received a copy of the GNU General|
             | Public License along with this program; if not,   |
             | write to the Free Software Foundation, Inc.,      |
             | 675 Mass Ave, Cambridge, MA 02139, USA.           |
             |                                                   |
             +---------------------------------------------------+
             |    Execution started on 10Jul2025 at 17:41:37     |
             +---------------------------------------------------+
 
 ******************************************************************************
 * -> Using CODATA 2006 constant values                                       *
 *    (http://physics.nist.gov/cuu/Constants/index.html)                      *
 * -> Using Bohr value from CODATA                                            *
 ******************************************************************************
 

 Running in serial (with serial executable)

                                    ------
                                    SYSTEM
                                    ------

                              Lattice Vectors (Ang)
                    a_1     4.083159  -2.260377  -0.001130
                    a_2     4.083159   2.260377  -0.001130
                    a_3     2.832874   0.000000   3.708951

                   Unit Cell Volume:      68.47783  (Ang^3)

                        Reciprocal-Space Vectors (Ang^-1)
                    b_1     0.769240  -1.389854  -0.587541
                    b_2     0.769240   1.389854  -0.587541
                    b_3     0.000469   0.000000   1.693702
  
 *----------------------------------------------------------------------------*
 |   Site       Fractional Coordinate          Cartesian Coordinate (Ang)     |
 +----------------------------------------------------------------------------+
 | Bi   1   0.76308   0.26308   0.26308   |    4.93530  -1.13019   0.97461    |
 | Bi   2   0.23692   0.73692   0.73692   |    6.06389   1.13019   2.73208    |
 *----------------------------------------------------------------------------*
                                ------------
                                K-POINT GRID
                                ------------
  
             Grid size = 10 x 10 x 10      Total points = 1000
  
  
 *---------------------------------- MAIN ------------------------------------*
 |  Number of Wannier Functions               :                16             |
 |  Number of Objective Wannier Functions     :                16             |
 |  Number of input Bloch states              :                26             |
 |  Output verbosity (1=low, 5=high)          :                 1             |
 |  Timing Level (1=low, 5=high)              :                 1             |
 |  Optimisation (0=memory, 3=speed)          :                 3             |
 |  Length Unit                               :               Ang             |
 |  Post-processing setup (write *.nnkp)      :                 F             |
 |  Using Gamma-only branch of algorithms     :                 F             |
 *----------------------------------------------------------------------------*
 *------------------------------- WANNIERISE ---------------------------------*
 |  Total number of iterations                :                 0             |
 |  Number of CG steps before reset           :                 5             |
 |  Trial step length for line search         :             2.000             |
 |  Convergence tolerence                     :         0.100E-09             |
 |  Convergence window                        :                -1             |
 |  Iterations between writing output         :                 1             |
 |  Iterations between backing up to disk     :               100             |
 |  Write r^2_nm to file                      :                 F             |
 |  Write xyz WF centres to file              :                 F             |
 |  Write on-site energies <0n|H|0n> to file  :                 F             |
 |  Use guiding centre to control phases      :                 F             |
 |  Use phases for initial projections        :                 F             |
 *----------------------------------------------------------------------------*
 *------------------------------- DISENTANGLE --------------------------------*
 |  Using band disentanglement                :                 T             |
 |  Total number of iterations                :                 0             |
 |  Mixing ratio                              :             0.500             |
 |  Convergence tolerence                     :         1.000E-10             |
 |  Convergence window                        :                 3             |
 *----------------------------------------------------------------------------*
 Time to read parameters        0.166 (sec)

 *---------------------------------- K-MESH ----------------------------------*
 +----------------------------------------------------------------------------+
 |                    Distance to Nearest-Neighbour Shells                    |
 |                    ------------------------------------                    |
 |          Shell             Distance (Ang^-1)          Multiplicity         |
 |          -----             -----------------          ------------         |
 |             1                   0.162399                      2            |
 |             2                   0.169370                      6            |
 |             3                   0.193591                      6            |
 |             4                   0.269521                      6            |
 |             5                   0.277971                      6            |
 |             6                   0.314667                      6            |
 |             7                   0.321933                     12            |
 |             8                   0.324797                      2            |
 |             9                   0.325506                      6            |
 |            10                   0.338740                      6            |
 |            11                   0.387181                      6            |
 |            12                   0.411514                      6            |
 |            13                   0.419860                      6            |
 |            14                   0.427505                     12            |
 |            15                   0.428044                     12            |
 |            16                   0.438193                     12            |
 |            17                   0.461843                      6            |
 |            18                   0.476631                     12            |
 |            19                   0.481459                      6            |
 |            20                   0.487196                      2            |
 |            21                   0.496600                      6            |
 |            22                   0.503538                     12            |
 |            23                   0.508111                     12            |
 |            24                   0.539043                      6            |
 |            25                   0.555941                      6            |
 |            26                   0.560917                     12            |
 |            27                   0.564617                      6            |
 |            28                   0.569104                     12            |
 |            29                   0.579175                     12            |
 |            30                   0.580772                     12            |
 |            31                   0.581169                     12            |
 |            32                   0.588683                     12            |
 |            33                   0.606494                     12            |
 |            34                   0.616709                      6            |
 |            35                   0.617829                     12            |
 |            36                   0.629333                      6            |
 +----------------------------------------------------------------------------+
 | The b-vectors are chosen automatically                                     |
 | The following shells are used:   1,  2                                     |
 +----------------------------------------------------------------------------+
 |                        Shell   # Nearest-Neighbours                        |
 |                        -----   --------------------                        |
 |                          1               2                                 |
 |                          2               6                                 |
 +----------------------------------------------------------------------------+
 | Completeness relation is fully satisfied [Eq. (B1), PRB 56, 12847 (1997)]  |
 +----------------------------------------------------------------------------+
 |                  b_k Vectors (Ang^-1) and Weights (Ang^2)                  |
 |                  ----------------------------------------                  |
 |            No.         b_k(x)      b_k(y)      b_k(z)        w_b           |
 |            ---        --------------------------------     --------        |
 |             1         0.153895    0.000000    0.051862    14.644569        |
 |             2        -0.153895    0.000000   -0.051862    14.644569        |
 |             3         0.076924   -0.138985   -0.058754    12.942015        |
 |             4        -0.076924    0.138985    0.058754    12.942015        |
 |             5         0.076924    0.138985   -0.058754    12.942015        |
 |             6        -0.076924   -0.138985    0.058754    12.942015        |
 |             7         0.000047    0.000000    0.169370    12.942015        |
 |             8        -0.000047    0.000000   -0.169370    12.942015        |
 +----------------------------------------------------------------------------+
 |                           b_k Directions (Ang^-1)                          |
 |                           -----------------------                          |
 |            No.           x           y           z                         |
 |            ---        --------------------------------                     |
 |             1         0.153895    0.000000    0.051862                     |
 |             2         0.076924   -0.138985   -0.058754                     |
 |             3         0.076924    0.138985   -0.058754                     |
 |             4         0.000047    0.000000    0.169370                     |
 +----------------------------------------------------------------------------+
  
 Time to get kmesh              2.538 (sec)
 *============================================================================*
 |                              MEMORY ESTIMATE                               |
 |         Maximum RAM allocated during each phase of the calculation         |
 *============================================================================*
 |                        Disentanglement          131.40 Mb                  |
 |                            Wannierise:           89.98 Mb                  |
 |                          plot_wannier:           89.98 Mb                  |
 *----------------------------------------------------------------------------*
  
 Starting a new Wannier90 calculation ...


 Reading overlaps from wannier90.mmn    : File generated by VASP: unknown system

 Reading projections from wannier90.amn : File generated by VASP: unknown system

 Time to read overlaps          5.561 (sec)

 *------------------------------- DISENTANGLE --------------------------------*
 +----------------------------------------------------------------------------+
 |                              Energy  Windows                               |
 |                              ---------------                               |
 |                   Outer:  -11.00000  to   11.00000  (eV)                   |
 |                   Inner:  -11.00000  to    5.00000  (eV)                   |
 +----------------------------------------------------------------------------+
   Number of target bands to extract:   16

                   Unitarised projection of Wannier functions                  
                   ------------------------------------------                  
   A_mn = <psi_m|g_n> --> S = A.A^+ --> U = S^-1/2.A
   In dis_project... done
   Using an inner window (linner = T)
   In dis_proj_froz... done

                   Extraction of optimally-connected subspace                  
                   ------------------------------------------                  
 +---------------------------------------------------------------------+<-- DIS
 |  Iter     Omega_I(i-1)      Omega_I(i)      Delta (frac.)    Time   |<-- DIS
 +---------------------------------------------------------------------+<-- DIS

     <<< Warning: Maximum number of disentanglement iterations reached >>>
          <<< Disentanglement convergence criteria not satisfied >>>

        Final Omega_I     0.00000000 (Ang^2)

 +----------------------------------------------------------------------------+

 Time to disentangle bands      0.642 (sec)

 Writing checkpoint file wannier90.chk... done


 *------------------------------- WANNIERISE ---------------------------------*
 +--------------------------------------------------------------------+<-- CONV
 | Iter  Delta Spread     RMS Gradient      Spread (Ang^2)      Time  |<-- CONV
 +--------------------------------------------------------------------+<-- CONV

 ------------------------------------------------------------------------------
 Initial State
  WF centre and spread    1  (  0.854443,  1.130188,  0.976509 )     1.50407218
  WF centre and spread    2  (  0.854443,  1.130188,  0.976509 )     1.50407217
  WF centre and spread    3  (  0.813872,  1.130188,  0.967532 )     3.46942034
  WF centre and spread    4  (  0.813872,  1.130188,  0.967532 )     3.46942030
  WF centre and spread    5  (  0.814202,  1.130188,  0.994799 )     3.44328821
  WF centre and spread    6  (  0.814202,  1.130188,  0.994799 )     3.44328817
  WF centre and spread    7  (  0.825279,  1.130188,  0.930161 )     3.47219792
  WF centre and spread    8  (  0.825279,  1.130188,  0.930161 )     3.47219790
  WF centre and spread    9  ( -0.854443, -1.130188, -0.976509 )     1.50407218
  WF centre and spread   10  ( -0.854443, -1.130188, -0.976509 )     1.50407217
  WF centre and spread   11  ( -0.813872, -1.130188, -0.967532 )     3.46942032
  WF centre and spread   12  ( -0.813872, -1.130188, -0.967532 )     3.46942031
  WF centre and spread   13  ( -0.814202, -1.130188, -0.994799 )     3.44328821
  WF centre and spread   14  ( -0.814202, -1.130188, -0.994799 )     3.44328817
  WF centre and spread   15  ( -0.825279, -1.130188, -0.930161 )     3.47219792
  WF centre and spread   16  ( -0.825279, -1.130188, -0.930161 )     3.47219790
  Sum of centres and spreads ( -0.000000,  0.000000,  0.000000 )    47.55591437

      0     0.476E+02     0.0000000000       47.5559145470       0.00  <-- CONV
        O_D=      0.0470660 O_OD=     11.4668411 O_TOT=     47.5559145 <-- SPRD
 ------------------------------------------------------------------------------
 Final State
  WF centre and spread    1  (  0.854443,  1.130188,  0.976509 )     1.50407218
  WF centre and spread    2  (  0.854443,  1.130188,  0.976509 )     1.50407217
  WF centre and spread    3  (  0.813872,  1.130188,  0.967532 )     3.46942034
  WF centre and spread    4  (  0.813872,  1.130188,  0.967532 )     3.46942030
  WF centre and spread    5  (  0.814202,  1.130188,  0.994799 )     3.44328821
  WF centre and spread    6  (  0.814202,  1.130188,  0.994799 )     3.44328817
  WF centre and spread    7  (  0.825279,  1.130188,  0.930161 )     3.47219792
  WF centre and spread    8  (  0.825279,  1.130188,  0.930161 )     3.47219790
  WF centre and spread    9  ( -0.854443, -1.130188, -0.976509 )     1.50407218
  WF centre and spread   10  ( -0.854443, -1.130188, -0.976509 )     1.50407217
  WF centre and spread   11  ( -0.813872, -1.130188, -0.967532 )     3.46942032
  WF centre and spread   12  ( -0.813872, -1.130188, -0.967532 )     3.46942031
  WF centre and spread   13  ( -0.814202, -1.130188, -0.994799 )     3.44328821
  WF centre and spread   14  ( -0.814202, -1.130188, -0.994799 )     3.44328817
  WF centre and spread   15  ( -0.825279, -1.130188, -0.930161 )     3.47219792
  WF centre and spread   16  ( -0.825279, -1.130188, -0.930161 )     3.47219790
  Sum of centres and spreads ( -0.000000,  0.000000,  0.000000 )    47.55591437

         Spreads (Ang^2)       Omega I      =    36.042007480
        ================       Omega D      =     0.047065959
                               Omega OD     =    11.466841108
    Final Spread (Ang^2)       Omega Total  =    47.555914547
 ------------------------------------------------------------------------------
 Time for wannierise            0.150 (sec)

 Writing checkpoint file wannier90.chk... done

 Time for plotting              0.000 (sec)
 Total Execution Time          10.161 (sec)

 *===========================================================================*
 |                             TIMING INFORMATION                            |
 *===========================================================================*
 |    Tag                                                Ncalls      Time (s)|
 |---------------------------------------------------------------------------|
 |kmesh: get                                        :         1         2.478|
 |overlap: allocate                                 :         1         0.003|
 |overlap: read                                     :         1         5.482|
 |dis: main                                         :         1         0.647|
 |wann: main                                        :         1         0.150|
 |plot: main                                        :         1         0.000|
 *---------------------------------------------------------------------------*

 All done: wannier90 exiting

             +---------------------------------------------------+
             |                                                   |
             |                   WANNIER90                       |
             |                                                   |
             +---------------------------------------------------+
             |                                                   |
             |        Welcome to the Maximally-Localized         |
             |        Generalized Wannier Functions code         |
             |            http://www.wannier.org                 |
             |                                                   |
             |                                                   |
             |  Wannier90 Developer Group:                       |
             |    Giovanni Pizzi    (EPFL)                       |
             |    Valerio Vitale    (Cambridge)                  |
             |    David Vanderbilt  (Rutgers University)         |
             |    Nicola Marzari    (EPFL)                       |
             |    Ivo Souza         (Universidad del Pais Vasco) |
             |    Arash A. Mostofi  (Imperial College London)    |
             |    Jonathan R. Yates (University of Oxford)       |
             |                                                   |
             |  For the full list of Wannier90 3.x authors,      |
             |  please check the code documentation and the      |
             |  README on the GitHub page of the code            |
             |                                                   |
             |                                                   |
             |  Please cite                                      |
             |                                                   |
             |  [ref] "Wannier90 as a community code:            |
             |        new features and applications",            |
             |        G. Pizzi et al., J. Phys. Cond. Matt. 32,  |
             |        165902 (2020).                             |
             |        http://doi.org/10.1088/1361-648X/ab51ff    |
             |                                                   |
             |  in any publications arising from the use of      |
             |  this code. For the method please cite            |
             |                                                   |
             |  [ref] "Maximally Localized Generalised Wannier   |
             |         Functions for Composite Energy Bands"     |
             |         N. Marzari and D. Vanderbilt              |
             |         Phys. Rev. B 56 12847 (1997)              |
             |                                                   |
             |  [ref] "Maximally Localized Wannier Functions     |
             |         for Entangled Energy Bands"               |
             |         I. Souza, N. Marzari and D. Vanderbilt    |
             |         Phys. Rev. B 65 035109 (2001)             |
             |                                                   |
             |                                                   |
             | Copyright (c) 1996-2020                           |
             |        The Wannier90 Developer Group and          |
             |        individual contributors                    |
             |                                                   |
             |      Release: 3.1.0        5th March    2020      |
             |                                                   |
             | This program is free software; you can            |
             | redistribute it and/or modify it under the terms  |
             | of the GNU General Public License as published by |
             | the Free Software Foundation; either version 2 of |
             | the License, or (at your option) any later version|
             |                                                   |
             | This program is distributed in the hope that it   |
             | will be useful, but WITHOUT ANY WARRANTY; without |
             | even the implied warranty of MERCHANTABILITY or   |
             | FITNESS FOR A PARTICULAR PURPOSE. See the GNU     |
             | General Public License for more details.          |
             |                                                   |
             | You should have received a copy of the GNU General|
             | Public License along with this program; if not,   |
             | write to the Free Software Foundation, Inc.,      |
             | 675 Mass Ave, Cambridge, MA 02139, USA.           |
             |                                                   |
             +---------------------------------------------------+
             |    Execution started on 10Jul2025 at 18:00:27     |
             +---------------------------------------------------+
 
 ******************************************************************************
 * -> Using CODATA 2006 constant values                                       *
 *    (http://physics.nist.gov/cuu/Constants/index.html)                      *
 * -> Using Bohr value from CODATA                                            *
 ******************************************************************************
 

 Running in serial (with serial executable)

                                    ------
                                    SYSTEM
                                    ------

                              Lattice Vectors (Ang)
                    a_1     4.083159  -2.260377  -0.001130
                    a_2     4.083159   2.260377  -0.001130
                    a_3     2.832874   0.000000   3.708951

                   Unit Cell Volume:      68.47783  (Ang^3)

                        Reciprocal-Space Vectors (Ang^-1)
                    b_1     0.769240  -1.389854  -0.587541
                    b_2     0.769240   1.389854  -0.587541
                    b_3     0.000469   0.000000   1.693702
  
 *----------------------------------------------------------------------------*
 |   Site       Fractional Coordinate          Cartesian Coordinate (Ang)     |
 +----------------------------------------------------------------------------+
 | Bi   1   0.76308   0.26308   0.26308   |    4.93530  -1.13019   0.97461    |
 | Bi   2   0.23692   0.73692   0.73692   |    6.06389   1.13019   2.73208    |
 *----------------------------------------------------------------------------*
                                ------------
                                K-POINT GRID
                                ------------
  
             Grid size = 10 x 10 x 10      Total points = 1000
  
  
 *---------------------------------- MAIN ------------------------------------*
 |  Number of Wannier Functions               :                16             |
 |  Number of Objective Wannier Functions     :                16             |
 |  Number of input Bloch states              :                26             |
 |  Output verbosity (1=low, 5=high)          :                 1             |
 |  Timing Level (1=low, 5=high)              :                 1             |
 |  Optimisation (0=memory, 3=speed)          :                 3             |
 |  Length Unit                               :               Ang             |
 |  Post-processing setup (write *.nnkp)      :                 F             |
 |  Using Gamma-only branch of algorithms     :                 F             |
 *----------------------------------------------------------------------------*
 *------------------------------- WANNIERISE ---------------------------------*
 |  Total number of iterations                :                 0             |
 |  Number of CG steps before reset           :                 5             |
 |  Trial step length for line search         :             2.000             |
 |  Convergence tolerence                     :         0.100E-09             |
 |  Convergence window                        :                -1             |
 |  Iterations between writing output         :                 1             |
 |  Iterations between backing up to disk     :               100             |
 |  Write r^2_nm to file                      :                 F             |
 |  Write xyz WF centres to file              :                 F             |
 |  Write on-site energies <0n|H|0n> to file  :                 F             |
 |  Use guiding centre to control phases      :                 F             |
 |  Use phases for initial projections        :                 F             |
 *----------------------------------------------------------------------------*
 *------------------------------- DISENTANGLE --------------------------------*
 |  Using band disentanglement                :                 T             |
 |  Total number of iterations                :                 0             |
 |  Mixing ratio                              :             0.500             |
 |  Convergence tolerence                     :         1.000E-10             |
 |  Convergence window                        :                 3             |
 *----------------------------------------------------------------------------*
 *-------------------------------- PLOTTING ----------------------------------*
 |  Plotting interpolated bandstructure       :                 T             |
 |   Number of K-path sections                :                 9             |
 |   Divisions along first K-path section     :                40             |
 |   Output format                            :          gnuplot              |
 |   Output mode                              :               s-k             |
 *----------------------------------------------------------------------------*
 |   K-space path sections:                                                   |
 |    From: G       0.000  0.000  0.000     To: L       0.500  0.000  0.000   |
 |    From: L       0.500  0.000  0.000     To: B1      0.500  0.242 -0.242   |
 |    From: B       0.758  0.500  0.242     To: Z       0.500  0.500  0.500   |
 |    From: Z       0.500  0.500  0.500     To: G       0.000  0.000  0.000   |
 |    From: G       0.000  0.000  0.000     To: X       0.371  0.000 -0.371   |
 |    From: Q       0.629  0.371  0.000     To: F       0.500  0.500  0.000   |
 |    From: F       0.500  0.500  0.000     To: P1      0.629  0.629  0.242   |
 |    From: P1      0.629  0.629  0.242     To: Z       0.500  0.500  0.500   |
 |    From: L       0.500  0.000  0.000     To: P       0.758  0.371  0.371   |
 *----------------------------------------------------------------------------*
 |  Plotting Hamiltonian in WF basis          :                 T             |
 *----------------------------------------------------------------------------*
 Time to read parameters        0.109 (sec)

 *---------------------------------- K-MESH ----------------------------------*
 +----------------------------------------------------------------------------+
 |                    Distance to Nearest-Neighbour Shells                    |
 |                    ------------------------------------                    |
 |          Shell             Distance (Ang^-1)          Multiplicity         |
 |          -----             -----------------          ------------         |
 |             1                   0.162399                      2            |
 |             2                   0.169370                      6            |
 |             3                   0.193591                      6            |
 |             4                   0.269521                      6            |
 |             5                   0.277971                      6            |
 |             6                   0.314667                      6            |
 |             7                   0.321933                     12            |
 |             8                   0.324797                      2            |
 |             9                   0.325506                      6            |
 |            10                   0.338740                      6            |
 |            11                   0.387181                      6            |
 |            12                   0.411514                      6            |
 |            13                   0.419860                      6            |
 |            14                   0.427505                     12            |
 |            15                   0.428044                     12            |
 |            16                   0.438193                     12            |
 |            17                   0.461843                      6            |
 |            18                   0.476631                     12            |
 |            19                   0.481459                      6            |
 |            20                   0.487196                      2            |
 |            21                   0.496600                      6            |
 |            22                   0.503538                     12            |
 |            23                   0.508111                     12            |
 |            24                   0.539043                      6            |
 |            25                   0.555941                      6            |
 |            26                   0.560917                     12            |
 |            27                   0.564617                      6            |
 |            28                   0.569104                     12            |
 |            29                   0.579175                     12            |
 |            30                   0.580772                     12            |
 |            31                   0.581169                     12            |
 |            32                   0.588683                     12            |
 |            33                   0.606494                     12            |
 |            34                   0.616709                      6            |
 |            35                   0.617829                     12            |
 |            36                   0.629333                      6            |
 +----------------------------------------------------------------------------+
 | The b-vectors are chosen automatically                                     |
 | The following shells are used:   1,  2                                     |
 +----------------------------------------------------------------------------+
 |                        Shell   # Nearest-Neighbours                        |
 |                        -----   --------------------                        |
 |                          1               2                                 |
 |                          2               6                                 |
 +----------------------------------------------------------------------------+
 | Completeness relation is fully satisfied [Eq. (B1), PRB 56, 12847 (1997)]  |
 +----------------------------------------------------------------------------+
 |                  b_k Vectors (Ang^-1) and Weights (Ang^2)                  |
 |                  ----------------------------------------                  |
 |            No.         b_k(x)      b_k(y)      b_k(z)        w_b           |
 |            ---        --------------------------------     --------        |
 |             1         0.153895    0.000000    0.051862    14.644569        |
 |             2        -0.153895    0.000000   -0.051862    14.644569        |
 |             3         0.076924   -0.138985   -0.058754    12.942015        |
 |             4        -0.076924    0.138985    0.058754    12.942015        |
 |             5         0.076924    0.138985   -0.058754    12.942015        |
 |             6        -0.076924   -0.138985    0.058754    12.942015        |
 |             7         0.000047    0.000000    0.169370    12.942015        |
 |             8        -0.000047    0.000000   -0.169370    12.942015        |
 +----------------------------------------------------------------------------+
 |                           b_k Directions (Ang^-1)                          |
 |                           -----------------------                          |
 |            No.           x           y           z                         |
 |            ---        --------------------------------                     |
 |             1         0.153895    0.000000    0.051862                     |
 |             2         0.076924   -0.138985   -0.058754                     |
 |             3         0.076924    0.138985   -0.058754                     |
 |             4         0.000047    0.000000    0.169370                     |
 +----------------------------------------------------------------------------+
  
 Time to get kmesh              2.447 (sec)
 *============================================================================*
 |                              MEMORY ESTIMATE                               |
 |         Maximum RAM allocated during each phase of the calculation         |
 *============================================================================*
 |                        Disentanglement          131.40 Mb                  |
 |                            Wannierise:           89.98 Mb                  |
 |                          plot_wannier:           89.98 Mb                  |
 *----------------------------------------------------------------------------*
  
 Reading restart information from file wannier90.chk :
 written on 10Jul2025 at 17:58:56 ... done

 Restarting Wannier90 from plotting routines ...

 *---------------------------------------------------------------------------*
 |                               PLOTTING                                    |
 *---------------------------------------------------------------------------*

 !!!! Kpoint grid does not include Gamma.  Interpolation may be incorrect. !!!!

 Calculating interpolated band-structure

 Time to calculate interpolated band structure       8.099 (sec)

 Time for plotting             10.122 (sec)
 Total Execution Time          12.742 (sec)

 *===========================================================================*
 |                             TIMING INFORMATION                            |
 *===========================================================================*
 |    Tag                                                Ncalls      Time (s)|
 |---------------------------------------------------------------------------|
 |kmesh: get                                        :         1         2.447|
 |plot: main                                        :         1        10.122|
 *---------------------------------------------------------------------------*

 All done: wannier90 exiting
----------------------------------------------------------------*
 |  Plotting Hamiltonian in WF basis          :                 T             |
 *----------------------------------------------------------------------------*
 Time to read parameters        0.159 (sec)

 *---------------------------------- K-MESH ----------------------------------*
 +----------------------------------------------------------------------------+
 |                    Distance to Nearest-Neighbour Shells                    |
 |                    ------------------------------------                    |
 |          Shell             Distance (Ang^-1)          Multiplicity         |
 |          -----             -----------------          ------------         |
 |             1                   0.162399                      2            |
 |             2                   0.169370                      6            |
 |             3                   0.193591                      6            |
 |             4                   0.269521                      6            |
 |             5                   0.277971                      6            |
 |             6                   0.314667                      6            |
 |             7                   0.321933                     12            |
 |             8                   0.324797                      2            |
 |             9                   0.325506                      6            |
 |            10                   0.338740                      6            |
 |            11                   0.387181                      6            |
 |            12                   0.411514                      6            |
 |            13                   0.419860                      6            |
 |            14                   0.427505                     12            |
 |            15                   0.428044                     12            |
 |            16                   0.438193                     12            |
 |            17                   0.461843                      6            |
 |            18                   0.476631                     12            |
 |            19                   0.481459                      6            |
 |            20                   0.487196                      2            |
 |            21                   0.496600                      6            |
 |            22                   0.503538                     12            |
 |            23                   0.508111                     12            |
 |            24                   0.539043                      6            |
 |            25                   0.555941                      6            |
 |            26                   0.560917                     12            |
 |            27                   0.564617                      6            |
 |            28                   0.569104                     12            |
 |            29                   0.579175                     12            |
 |            30                   0.580772                     12            |
 |            31                   0.581169                     12            |
 |            32                   0.588683                     12            |
 |            33                   0.606494                     12            |
 |            34                   0.616709                      6            |
 |            35                   0.617829                     12            |
 |            36                   0.629333                      6            |
 +----------------------------------------------------------------------------+
 | The b-vectors are chosen automatically                                     |
 | The following shells are used:   1,  2                                     |
 +----------------------------------------------------------------------------+
 |                        Shell   # Nearest-Neighbours                        |
 |                        -----   --------------------                        |
 |                          1               2                                 |
 |                          2               6                                 |
 +----------------------------------------------------------------------------+
 | Completeness relation is fully satisfied [Eq. (B1), PRB 56, 12847 (1997)]  |
 +----------------------------------------------------------------------------+
 |                  b_k Vectors (Ang^-1) and Weights (Ang^2)                  |
 |                  ----------------------------------------                  |
 |            No.         b_k(x)      b_k(y)      b_k(z)        w_b           |
 |            ---        --------------------------------     --------        |
 |             1         0.153895    0.000000    0.051862    14.644569        |
 |             2        -0.153895    0.000000   -0.051862    14.644569        |
 |             3         0.076924   -0.138985   -0.058754    12.942015        |
 |             4        -0.076924    0.138985    0.058754    12.942015        |
 |             5         0.076924    0.138985   -0.058754    12.942015        |
 |             6        -0.076924   -0.138985    0.058754    12.942015        |
 |             7         0.000047    0.000000    0.169370    12.942015        |
 |             8        -0.000047    0.000000   -0.169370    12.942015        |
 +----------------------------------------------------------------------------+
 |                           b_k Directions (Ang^-1)                          |
 |                           -----------------------                          |
 |            No.           x           y           z                         |
 |            ---        --------------------------------                     |
 |             1         0.153895    0.000000    0.051862                     |
 |             2         0.076924   -0.138985   -0.058754                     |
 |             3         0.076924    0.138985   -0.058754                     |
 |             4         0.000047    0.000000    0.169370                     |
 +----------------------------------------------------------------------------+
  
 Time to get kmesh              2.511 (sec)
 *============================================================================*
 |                              MEMORY ESTIMATE                               |
 |         Maximum RAM allocated during each phase of the calculation         |
 *============================================================================*
 |                        Disentanglement          131.40 Mb                  |
 |                            Wannierise:           89.98 Mb                  |
 |                          plot_wannier:           89.98 Mb                  |
 *----------------------------------------------------------------------------*
  
 Reading restart information from file wannier90.chk :
 written on 10Jul2025 at 17:58:56 ... done

 Restarting Wannier90 from plotting routines ...

 *---------------------------------------------------------------------------*
 |                               PLOTTING                                    |
 *---------------------------------------------------------------------------*

 !!!! Kpoint grid does not include Gamma.  Interpolation may be incorrect. !!!!

 Calculating interpolated band-structure

 Time to calculate interpolated band structure       8.107 (sec)

 Time for plotting             10.383 (sec)
 Total Execution Time          13.119 (sec)

 *===========================================================================*
 |                             TIMING INFORMATION                            |
 *===========================================================================*
 |    Tag                                                Ncalls      Time (s)|
 |---------------------------------------------------------------------------|
 |kmesh: get                                        :         1         2.511|
 |plot: main                                        :         1        10.383|
 *---------------------------------------------------------------------------*

 All done: wannier90 exiting
----------------------------------------------------------------*
 |  Plotting Hamiltonian in WF basis          :                 T             |
 *----------------------------------------------------------------------------*
 Time to read parameters        0.172 (sec)

 *---------------------------------- K-MESH ----------------------------------*
 +----------------------------------------------------------------------------+
 |                    Distance to Nearest-Neighbour Shells                    |
 |                    ------------------------------------                    |
 |          Shell             Distance (Ang^-1)          Multiplicity         |
 |          -----             -----------------          ------------         |
 |             1                   0.162399                      2            |
 |             2                   0.169370                      6            |
 |             3                   0.193591                      6            |
 |             4                   0.269521                      6            |
 |             5                   0.277971                      6            |
 |             6                   0.314667                      6            |
 |             7                   0.321933                     12            |
 |             8                   0.324797                      2            |
 |             9                   0.325506                      6            |
 |            10                   0.338740                      6            |
 |            11                   0.387181                      6            |
 |            12                   0.411514                      6            |
 |            13                   0.419860                      6            |
 |            14                   0.427505                     12            |
 |            15                   0.428044                     12            |
 |            16                   0.438193                     12            |
 |            17                   0.461843                      6            |
 |            18                   0.476631                     12            |
 |            19                   0.481459                      6            |
 |            20                   0.487196                      2            |
 |            21                   0.496600                      6            |
 |            22                   0.503538                     12            |
 |            23                   0.508111                     12            |
 |            24                   0.539043                      6            |
 |            25                   0.555941                      6            |
 |            26                   0.560917                     12            |
 |            27                   0.564617                      6            |
 |            28                   0.569104                     12            |
 |            29                   0.579175                     12            |
 |            30                   0.580772                     12            |
 |            31                   0.581169                     12            |
 |            32                   0.588683                     12            |
 |            33                   0.606494                     12            |
 |            34                   0.616709                      6            |
 |            35                   0.617829                     12            |
 |            36                   0.629333                      6            |
 +----------------------------------------------------------------------------+
 | The b-vectors are chosen automatically                                     |
 | The following shells are used:   1,  2                                     |
 +----------------------------------------------------------------------------+
 |                        Shell   # Nearest-Neighbours                        |
 |                        -----   --------------------                        |
 |                          1               2                                 |
 |                          2               6                                 |
 +----------------------------------------------------------------------------+
 | Completeness relation is fully satisfied [Eq. (B1), PRB 56, 12847 (1997)]  |
 +----------------------------------------------------------------------------+
 |                  b_k Vectors (Ang^-1) and Weights (Ang^2)                  |
 |                  ----------------------------------------                  |
 |            No.         b_k(x)      b_k(y)      b_k(z)        w_b           |
 |            ---        --------------------------------     --------        |
 |             1         0.153895    0.000000    0.051862    14.644569        |
 |             2        -0.153895    0.000000   -0.051862    14.644569        |
 |             3         0.076924   -0.138985   -0.058754    12.942015        |
 |             4        -0.076924    0.138985    0.058754    12.942015        |
 |             5         0.076924    0.138985   -0.058754    12.942015        |
 |             6        -0.076924   -0.138985    0.058754    12.942015        |
 |             7         0.000047    0.000000    0.169370    12.942015        |
 |             8        -0.000047    0.000000   -0.169370    12.942015        |
 +----------------------------------------------------------------------------+
 |                           b_k Directions (Ang^-1)                          |
 |                           -----------------------                          |
 |            No.           x           y           z                         |
 |            ---        --------------------------------                     |
 |             1         0.153895    0.000000    0.051862                   |    |             2         0.076924   -0.138985   -0.058754                     |
 |             3         0.076924    0.138985   -0.058754                     |
 |             4         0.000047    0.000000    0.169370                     |
 +----------------------------------------------------------------------------+
  
 Time to get kmesh              2.521 (sec)
 *============================================================================*
 |                              MEMORY ESTIMATE                               |
 |         Maximum RAM allocated during each phase of the calculation         |
 *============================================================================*
 |                        Disentanglement          131.40 Mb                  |
 |                            Wannierise:           89.98 Mb                  |
 |                          plot_wannier:           89.98 Mb                  |
 *----------------------------------------------------------------------------*
  
 Reading restart information from file wannier90.chk :
 written on 10Jul2025 at 17:58:56 ... done

 Restarting Wannier90 from plotting routines ...

 *---------------------------------------------------------------------------*
 |                               PLOTTING                                    |
 *---------------------------------------------------------------------------*

 !!!! Kpoint grid does not include Gamma.  Interpolation may be incorrect. !!!!

 Calculating interpolated band-structure

 Time to calculate interpolated band structure       8.130 (sec)

 Time for plotting             10.348 (sec)
 Total Execution Time          13.107 (sec)

 *===========================================================================*
 |                             TIMING INFORMATION                            |
 *===========================================================================*
 |    Tag                                                Ncalls      Time (s)|
 |---------------------------------------------------------------------------|
 |kmesh: get                                        :         1         2.521|
 |plot: main                                        :         1        10.348|
 *---------------------------------------------------------------------------*

 All done: wannier90 exiting
      1               2                                 |
 |                          2               6                                 |
 +----------------------------------------------------------------------------+
 | Completeness relation is fully satisfied [Eq. (B1), PRB 56, 12847 (1997)]  |
 +----------------------------------------------------------------------------+
 |                  b_k Vectors (Ang^-1) and Weights (Ang^2)                  |
 |                  ----------------------------------------                  |
 |            No.         b_k(x)      b_k(y)      b_k(z)        w_b           |
 |            ---        --------------------------------     --------        |
 |             1         0.153895    0.000000    0.051862    14.644569        |
 |             2        -0.153895    0.000000   -0.051862    14.644569        |
 |             3         0.076924   -0.138985   -0.058754    12.942015        |
 |             4        -0.076924    0.138985    0.058754    12.942015        |
 |             5         0.076924    0.138985   -0.058754    12.942015        |
 |             6        -0.076924   -0.138985    0.058754    12.942015        |
 |             7         0.000047    0.000000    0.169370    12.942015        |
 |             8        -0.000047    0.000000   -0.169370    12.942015        |
 +----------------------------------------------------------------------------+
 |                           b_k Directions (Ang^-1)                          |
 |                           -----------------------                          |
 |            No.           x           y           z                         |
 |            ---        --------------------------------                     |
 |             1         0.153895    0.000000    0.05 |            14            |             2         0.076924   -0.138985   -0.058754                     |
 |             3         0.076924    0.138985   -0.058754                     |
 |             4         0.000047    0.000000    0.169370                     |
 +----------------------------------------------------------------------------+
  
 Time to get kmesh              2.525 (sec)
 *============================================================================*
 |                              MEMORY ESTIMATE                               |
 |         Maximum RAM allocated during each phase of the calculation         |
 *============================================================================*
 |                        Disentanglement          131.40 Mb                  |
 |                            Wannierise:           89.98 Mb                  |
 |                          plot_wannier:           89.98 Mb                  |
 *----------------------------------------------------------------------------*
  
 Reading restart information from file wannier90.chk :
 written on 10Jul2025 at 17:58:56 ... done

 Restarting Wannier90 from plotting routines ...

 *---------------------------------------------------------------------------*
 |                               PLOTTING                                    |
 *---------------------------------------------------------------------------*

 !!!! Kpoint grid does not include Gamma.  Interpolation may be incorrect. !!!!

 Calculating interpolated band-structure

 Time to calculate interpolated band structure       8.241 (sec)

 Time for plotting             10.476 (sec)
 Total Execution Time          13.240 (sec)

 *===========================================================================*
 |                             TIMING INFORMATION                            |
 *===========================================================================*
 |    Tag                                                Ncalls      Time (s)|
 |---------------------------------------------------------------------------|
 |kmesh: get                                        :         1         2.525|
 |plot: main                                        :         1        10.476|
 *---------------------------------------------------------------------------*

 All done: wannier90 exiting
2                                 |
 |                          2               6                                 |
 +----------------------------------------------------------------------------+
 | Completeness relation is fully satisfied [Eq. (B1), PRB 56, 12847 (1997)]  |
 +----------------------------------------------------------------------------+
 |                  b_k Vectors (Ang^-1) and Weights (Ang^2)                  |
 |                  ----------------------------------------                  |
 |            No.         b_k(x)      b_k(y)      b_k(z)        w_b           |
 |            ---        --------------------------------     --------        |
 |             1         0.153895    0.000000    0.051862    14.644569        |
 |             2        -0.153895    0.000000   -0.051862    14.644569        |
 |             3         0.076924   -0.138985   -0.058754    12.942015        |
 |             4        -0.076924    0.138985    0.058754    12.942015        |
 |             5         0.076924    0.138985   -0.058754    12.942015        |
 |             6        -0.076924   -0.138985    0.058754    12.942015        |
 |             7         0.000047    0.000000    0.169370    12.942015        |
 |             8        -0.000047    0.000000   -0.169370    12.942015        |
 +----------------------------------------------------------------------------+
 |                           b_k Directions (Ang^-1)                          |
 |                           -----------------------                          |
 |            No.           x           y           z                         |
 |            ---        --------------------------------                     |
 |             1         0.153895    0.000000    0.051862                     |
 |             2         0.076924   -0.138985   -0.058754                     |
 |             3         0.076924    0.138985   -0.058754                     |
 |             4         0.000047    0.000000    0.169370                     |
 +----------------------------------------------------------------------------+
  
 Time to get kmesh              2.525 (sec)
 *============================================================================*
 |                              MEMORY ESTIMATE                               |
 |         Maximum RAM allocated during each phase of the calculation         |
 *============================================================================*
 |                        Disentanglement          131.40 Mb                  |
 |                            Wannierise:           89.98 Mb                  |
 |                          plot_wannier:           89.98 Mb                  |
 *----------------------------------------------------------------------------*
  
 Reading restart information from file wannier90.chk :
 written on 10Jul2025 at 17:58:56 ... done

 Restarting Wannier90 from plotting routines ...

 *---------------------------------------------------------------------------*
 |                               PLOTTING                                    |
 *---------------------------------------------------------------------------*

 !!!! Kpoint grid does not include Gamma.  Interpolation may be incorrect. !!!!

 Calculating interpolated band-structure

 Time to calculate interpolated band structure       8.286 (sec)

 Time for plotting             10.550 (sec)
 Total Execution Time          13.313 (sec)

 *===========================================================================*
 |                             TIMING INFORMATION                            |
 *===========================================================================*
 |    Tag                                                Ncalls      Time (s)|
 |---------------------------------------------------------------------------|
 |kmesh: get                                        :         1         2.525|
 |plot: main                                        :         1        10.550|
 *---------------------------------------------------------------------------*

 All done: wannier90 exiting
ne: wannier90 exiting
----------------------------------------------------------------*
 |  Plotting Hamiltonian in WF basis          :                 T             |
 *----------------------------------------------------------------------------*
 Time to read parameters        0.172 (sec)

 *---------------------------------- K-MESH ----------------------------------*
 +----------------------------------------------------------------------------+
 |                    Distance to Nearest-Neighbour Shells                    |
 |                    ------------------------------------                    |
 |          Shell             Distance (Ang^-1)          Multiplicity         |
 |          -----             -----------------          ------------         |
 |             1                   0.162399                      2            |
 |             2                   0.169370                      6            |
 |             3                   0.193591                      6            |
 |             4                   0.269521                      6            |
 |             5                   0.277971                      6            |
 |             6                   0.314667                      6            |
 |             7                   0.321933                     12            |
 |             8                   0.324797                      2            |
 |             9                   0.325506                      6            |
 |            10                   0.338740                      6            |
 |            11                   0.387181                      6            |
 |            12                   0.411514                      6            |
 |            13                   0.419860                      6            |
 |            14                   0.427505                     12            |
 |            15                   0.428044                     12            |
 |            16                   0.438193                     12            |
 |            17                   0.461843                      6            |
 |            18                   0.476631                     12            |
 |            19                   0.481459                      6            |
 |            20                   0.487196                      2            |
 |            21                   0.496600                      6            |
 |            22                   0.503538                     12            |
 |            23                   0.508111                     12            |
 |            24                   0.539043                      6            |
 |            25                   0.555941                      6            |
 |            26                   0.560917                     12            |
 |            27                   0.564617                      6            |
 |            28                   0.569104                     12            |
 |            29                   0.579175                     12            |
 |            30                   0.580772                     12            |
 |            31                   0.581169                     12            |
 |            32                   0.588683                     12            |
 |            33                   0.606494                     12            |
 |            34                   0.616709                      6            |
 |            35                   0.617829                     12            |
 |            36                   0.629333                      6            |
 +----------------------------------------------------------------------------+
 | The b-vectors are chosen automatically                                     |
 | The following shells are used:   1,  2                                     |
 +----------------------------------------------------------------------------+
 |                        Shell   # Nearest-Neighbours                        |
 |                        -----   --------------------                        |
 |                          1               2                                 |
 |                          2               6                                 |
 +----------------------------------------------------------------------------+
 | Completeness relation is fully satisfied [Eq. (B1), PRB 56, 12847 (1997)]  |
 +----------------------------------------------------------------------------+
 |                  b_k Vectors (Ang^-1) and Weights (Ang^2)                  |
 |                  ----------------------------------------                  |
 |            No.         b_k(x)      b_k(y)      b_k(z)        w_b           |
 |            ---        --------------------------------     --------        |
 |             1         0.153895    0.000000    0.051862    14.644569        |
 |             2        -0.153895    0.000000   -0.051862    14.644569        |
 |             3         0.076924   -0.138985   -0.058754    12.942015        |
 |             4        -0.076924    0.138985    0.058754    12.942015        |
 |             5         0.076924    0.138985   -0.058754    12.942015        |
 |             6        -0.076924   -0.138985    0.058754    12.942015        |
 |             7         0.000047    0.000000    0.169370    12.942015        |
 |             8        -0.000047    0.000000   -0.169370    12.942015        |
 +----------------------------------------------------------------------------+
 |                           b_k Directions (Ang^-1)                          |
 |                           -----------------------                          |
 |            No.           x           y           z                         |
 |            ---        --------------------------------                     |
 |             1         0.153895    0.000000    0.051862                     |
 |             2         0.076924   -0.138985   -0.058754                     |
 |             3         0.076924    0.138985   -0.058754                     |
 |             4         0.000047    0.000000    0.169370                     |
 +----------------------------------------------------------------------------+
  
 Time to get kmesh              2.533 (sec)
 *============================================================================*
 |                              MEMORY ESTIMATE                               |
 |         Maximum RAM allocated during each phase of the calculation         |
 *============================================================================*
 |                        Disentanglement          131.40 Mb                  |
 |                            Wannierise:           89.98 Mb                  |
 |                          plot_wannier:           89.98 Mb                  |
 *----------------------------------------------------------------------------*
  
 Reading restart information from file wannier90.chk :
 written on 10Jul2025 at 17:58:56 ... done

 Restarting Wannier90 from plotting routines ...

 *---------------------------------------------------------------------------*
 |                               PLOTTING                                    |
 *---------------------------------------------------------------------------*

 !!!! Kpoint grid does not include Gamma.  Interpolation may be incorrect. !!!!

 Calculating interpolated band-structure

 Time to calculate interpolated band structure       8.362 (sec)

 Time for plotting             10.765 (sec)
 Total Execution Time          13.538 (sec)

 *===========================================================================*
 |                             TIMING INFORMATION                            |
 *===========================================================================*
 |    Tag                                                Ncalls      Time (s)|
 |---------------------------------------------------------------------------|
 |kmesh: get                                        :         1         2.533|
 |plot: main                                        :         1        10.765|
 *---------------------------------------------------------------------------*

 All done: wannier90 exiting
      1               2                                 |
 |                          2               6                                 |
 +----------------------------------------------------------------------------+
 | Completeness relation is fully satisfied [Eq. (B1), PRB 56, 12847 (1997)]  |
 +----------------------------------------------------------------------------+
 |                  b_k Vectors (Ang^-1) and Weights (Ang^2)                  |
 |                  ----------------------------------------                  |
 |            No.         b_k(x)      b_k(y)      b_k(z)        w_b           |
 |            ---        --------------------------------     --------        |
 |             1         0.153895    0.000000    0.051862    14.644569        |
 |             2        -0.153895    0.000000   -0.051862    14.644569        |
 |             3         0.076924   -0.138985   -0.058754    12.942015        |
 |             4        -0.076924    0.138985    0.058754    12.942015        |
 |             5         0.076924    0.138985   -0.058754    12.942015        |
 |             6        -0.076924   -0.138985    0.058754    12.942015        |
 |             7         0.000047    0.000000    0.169370    12.942015        |
 |             8        -0.000047    0.000000   -0.169370    12.942015        |
 +----------------------------------------------------------------------------+
 |                           b_k Directions (Ang^-1)                          |
 |                           -----------------------                          |
 |            No.           x           y           z                         |
 |            ---        --------------------------------                     |
 |             1         0.153895    0.000000    0.051862                     |
 |             2         0.076924   -0.138985   -0.058754                     |
 |             3         0.076924    0.138985   -0.058754                     |
 |             4         0.000047    0.000000    0.169370                     |
 +----------------------------------------------------------------------------+
  
 Time to get kmesh              2.511 (sec)
 *============================================================================*
 |                              MEMORY ESTIMATE                               |
 |         Maximum RAM allocated during each phase of the calculation         |
 *============================================================================*
 |                        Disentanglement          131.40 Mb                  |
 |                            Wannierise:           89.98 Mb                  |
 |                          plot_wannier:           89.98 Mb                  |
 *----------------------------------------------------------------------------*
  
 Reading restart information from file wannier90.chk :
 written on 10Jul2025 at 17:58:56 ... done

 Restarting Wannier90 from plotting routines ...

 *---------------------------------------------------------------------------*
 |                               PLOTTING                                    |
 *---------------------------------------------------------------------------*

 !!!! Kpoint grid does not include Gamma.  Interpolation may be incorrect. !!!!

 Calculating interpolated band-structure

 Time to calculate interpolated band structure       8.250 (sec)

 Time for plotting             10.360 (sec)
 Total Execution Time          13.104 (sec)

 *===========================================================================*
 |                             TIMING INFORMATION                            |
 *===========================================================================*
 |    Tag                                                Ncalls      Time (s)|
 |---------------------------------------------------------------------------|
 |kmesh: get                                        :         1         2.511|
 |plot: main                                        :         1        10.360|
 *---------------------------------------------------------------------------*

 All done: wannier90 exiting
----------------------------------------------------------------*
 |  Plotting Hamiltonian in WF basis          :                 T             |
 *----------------------------------------------------------------------------*
 Time to read parameters        0.163 (sec)

 *---------------------------------- K-MESH ----------------------------------*
 +----------------------------------------------------------------------------+
 |                    Distance to Nearest-Neighbour Shells                    |
 |                    ------------------------------------                    |
 |          Shell             Distance (Ang^-1)          Multiplicity         |
 |          -----             -----------------          ------------         |
 |             1                   0.162399                      2            |
 |             2                   0.169370                      6            |
[...]
 |             2        -0.153895    0.000000   -0.051862    14.644569        |
 |             3         0.076924   -0.138985   -0.058754    12.942015        |
 |             4        -0.076924    0.138985    0.058754    12.942015        |
 |             5         0.076924    0.138985   -0.058754    12.942015        |
 |             6        -0.076924   -0.138985    0.058754    12.942015        |
 |             7         0.000047    0.000000    0.169370    12.942015        |
 |             8        -0.000047    0.000000   -0.169370    12.942015        |
 +----------------------------------------------------------------------------+
 |                           b_k Directions (Ang^-1)                          |
 |                           -----------------------                          |
 |            No.           x           y           z                         |
 |            ---        --------------------------------                     |
 |             1         0.153895    0.000000    0.051862                     |
 |             2         0.076924   -0.138985   -0.058754                     |
 |             3         0.076924    0.138985   -0.058754                     |
 |             4         0.000047    0.000000    0.169370                     |
 +----------------------------------------------------------------------------+
  
 Time to get kmesh              2.482 (sec)
 *============================================================================*
 |                              MEMORY ESTIMATE                               |
 |         Maximum RAM allocated during each phase of the calculation         |
 *============================================================================*
 |                        Disentanglement          131.40 Mb                  |
 |                            Wannierise:           89.98 Mb                  |
 |                          plot_wannier:           89.98 Mb                  |
 *----------------------------------------------------------------------------*
  
 Reading restart information from file wannier90.chk :
 written on 10Jul2025 at 17:58:56 ... done

 Restarting Wannier90 from plotting routines ...

 *---------------------------------------------------------------------------*
 |                               PLOTTING                                    |
 *---------------------------------------------------------------------------*

 !!!! Kpoint grid does not include Gamma.  Interpolation may be incorrect. !!!!

 Calculating interpolated band-structure

 Time to calculate interpolated band structure       8.202 (sec)

 Time for plotting             10.343 (sec)
 Total Execution Time          13.048 (sec)

 *===========================================================================*
 |                             TIMING INFORMATION                            |
 *===========================================================================*
 |    Tag                                                Ncalls      Time (s)|
 |---------------------------------------------------------------------------|
 |kmesh: get                                        :         1         2.482|
 |plot: main                                        :         1        10.343|
 *---------------------------------------------------------------------------*

 All done: wannier90 exiting
      1               2                                 |
 |                          2               6                                 |
 +----------------------------------------------------------------------------+
 | Completeness relation is fully satisfied [Eq. (B1), PRB 56, 12847 (1997)]  |
 +----------------------------------------------------------------------------+
 |                  b_k Vectors (Ang^-1) and Weights (Ang^2)                  |
 |                  ----------------------------------------                  |
 |            No.         b_k(x)      b_k(y)      b_k(z)        w_b           |
 |            ---        --------------------------------     --------        |
 |             1         0.153895    0.000000    0.051862    14.644569        |
 |             2        -0.153895    0.000000   -0.051862    14.644569        |
 |             3         0.076924   -0.138985   -0.058754    12.942015        |
 |             4        -0.076924    0.138985    0.058754    12.942015        |
 |             5         0.076924    0.138985   -0.058754    12.942015        |
 |             6        -0.076924   -0.138985    0.058754    12.942015        |
 |             7         0.000047    0.000000    0.169370    12.942015        |
 |             8        -0.000047    0.000000   -0.169370    12.942015        |
 +----------------------------------------------------------------------------+
 |                           b_k Directions (Ang^-1)                          |
 |                           -----------------------                          |
 |            No.           x           y           z                         |
 |            ---        --------------------------------                     |
 |             1         0.153895    0.000000    0.051862                     |
 |             2         0.076924   -0.138985   -0.058754                     |
 |             3         0.076924    0.138985   -0.058754                     |
 |             4         0.000047    0.000000    0.169370                     |
 +----------------------------------------------------------------------------+
  
 Time to get kmesh              2.458 (sec)
 *============================================================================*
 |                              MEMORY ESTIMATE                               |
 |         Maximum RAM allocated during each phase of the calculation         |
 *============================================================================*
 |                        Disentanglement          131.40 Mb                  |
 |                            Wannierise:           89.98 Mb                  |
 |                          plot_wannier:           89.98 Mb                  |
 *----------------------------------------------------------------------------*
  
 Reading restart information from file wannier90.chk :
 written on 10Jul2025 at 17:58:56 ... done

 Restarting Wannier90 from plotting routines ...

 *---------------------------------------------------------------------------*
 |                               PLOTTING                                    |
 *---------------------------------------------------------------------------*

 !!!! Kpoint grid does not include Gamma.  Interpolation may be incorrect. !!!!

 Calculating interpolated band-structure

 Time to calculate interpolated band structure       8.215 (sec)

 Time for plotting             10.352 (sec)
 Total Execution Time          13.040 (sec)

 *===========================================================================*
 |                             TIMING INFORMATION                            |
 *===========================================================================*
 |    Tag                                                Ncalls      Time (s)|
 |---------------------------------------------------------------------------|
 |kmesh: get                                        :         1         2.458|
 |plot: main                                        :         1        10.352|
 *---------------------------------------------------------------------------*

 All done: wannier90 exiting
----------------------------------------------------------------*
 |  Plotting Hamiltonian in WF basis          :                 T             |
 *----------------------------------------------------------------------------*
 Time to read parameters        0.170 (sec)

 *---------------------------------- K-MESH ----------------------------------*
 +----------------------------------------------------------------------------+
 |                    Distance to Nearest-Neighbour Shells                    |
 |                    ------------------------------------                    |
 |          Shell             Distance (Ang^-1)          Multiplicity         |
 |          -----             -----------------          ------------         |
 |             1                   0.162399                      2            |
 |             2                   0.169370                      6            |
 |             3                   0.193591                      6            |
 |             4                   0.269521                      6            |
 |             5                   0.277971                      6            |
 |             6                   0.314667                      6            |
 |             7                   0.321933                     12            |
 |             8                   0.324797                      2            |
 |             9                   0.325506                      6            |
 |            10                   0.338740                      6            |
 |            11                   0.387181                      6            |
 |            12                   0.411514                      6            |
 |            13                   0.419860                      6            |
 |            14                   0.427505                     12            |
 |            15                   0.428044                     12            |
 |            16                   0.438193                     12            |
 |            17                   0.461843                      6            |
 |            18                   0.476631                     12            |
 |            19                   0.481459                      6            |
 |            20                   0.487196                      2            |
 |            21                   0.496600                      6            |
 |            22                   0.503538                     12            |
 |            23                   0.508111                     12            |
 |            24                   0.539043                      6            |
 |            25                   0.555941                      6            |
 |            26                   0.560917                     12            |
 |            27                   0.564617                      6            |
 |            28                   0.569104                     12            |
 |            29                   0.579175                     12            |
 |            30                   0.580772                     12            |
 |            31                   0.581169                     12            |
 |            32                   0.588683                     12            |
 |            33                   0.606494                     12            |
 |            34                   0.616709                      6            |
 |            35                   0.617829                     12            |
 |            36                   0.629333                      6            |
 +----------------------------------------------------------------------------+
 | The b-vectors are chosen automatically                                     |
 | The following shells are used:   1,  2                                     |
 +----------------------------------------------------------------------------+
 |                        Shell   # Nearest-Neighbours                        |
 |                        -----   --------------------                        |
 |                          1               2                                 |
 |                          2               6                                 |
 +----------------------------------------------------------------------------+
 | Completeness relation is fully satisfied [Eq. (B1), PRB 56, 12847 (1997)]  |
 +----------------------------------------------------------------------------+
 |                  b_k Vectors (Ang^-1) and Weights (Ang^2)                  |
 |                  ----------------------------------------                  |
 |            No.         b_k(x)      b_k(y)      b_k(z)        w_b           |
 |            ---        --------------------------------     --------        |
 |             1         0.153895    0.000000    0.051862    14.644569        |
 |             2        -0.153895    0.000000   -0.051862    14.644569        |
 |             3         0.076924   -0.138985   -0.058754    12.942015        |
 |             4        -0.076924    0.138985    0.058754    12.942015        |
 |             5         0.076924    0.138985   -0.058754    12.942015        |
 |             6        -0.076924   -0.138985    0.058754    12.942015        |
 |             7         0.000047    0.000000    0.169370    12.942015        |
 |             8        -0.000047    0.000000   -0.169370    12.942015        |
 +----------------------------------------------------------------------------+
 |                           b_k Directions (Ang^-1)                          |
 |                           -----------------------                          |
 |            No.           x           y           z                         |
 |            ---        --------------------------------                     |
 |             1         0.153895    0.000000    0.051862                     |
 |             2         0.076924   -0.138985   -0.058754                     |
 |             3         0.076924    0.138985   -0.058754                     |
 |             4         0.000047    0.000000    0.169370                     |
 +----------------------------------------------------------------------------+
  
 Time to get kmesh              2.503 (sec)
 *============================================================================*
 |                              MEMORY ESTIMATE                               |
 |         Maximum RAM allocated during each phase of the calculation         |
 *============================================================================*
 |                        Disentanglement          131.40 Mb                  |
 |                            Wannierise:           89.98 Mb                  |
 |                          plot_wannier:           89.98 Mb                  |
 *----------------------------------------------------------------------------*
  
 Reading restart information from file wannier90.chk :
 written on 10Jul2025 at 17:58:56 ... done

 Restarting Wannier90 from plotting routines ...

 *---------------------------------------------------------------------------*
 |                               PLOTTING                                    |
 *---------------------------------------------------------------------------*

 !!!! Kpoint grid does not include Gamma.  Interpolation may be incorrect. !!!!

 Calculating interpolated band-structure

 Time to calculate interpolated band structure       8.196 (sec)

 Time for plotting             10.293 (sec)
 Total Execution Time          13.035 (sec)

 *===========================================================================*
 |                             TIMING INFORMATION                            |
 *===========================================================================*
 |    Tag                                                Ncalls      Time (s)|
 |---------------------------------------------------------------------------|
 |kmesh: get                                        :         1         2.503|
 |plot: main                                        :         1        10.293|
 *---------------------------------------------------------------------------*

 All done: wannier90 exiting
      1               2                                 |
 |                          2               6                                 |
 +----------------------------------------------------------------------------+
 | Completeness relation is fully satisfied [Eq. (B1), PRB 56, 12847 (1997)]  |
 +----------------------------------------------------------------------------+
 |                  b_k Vectors (Ang^-1) and Weights (Ang^2)                  |
 |                  ----------------------------------------                  |
 |            No.         b_k(x)      b_k(y)      b_k(z)        w_b           |
 |            ---        --------------------------------     --------        |
 |             1         0.153895    0.000000    0.051862    14.644569        |
 |             2        -0.153895    0.000000   -0.051862    14.644569        |
 |             3         0.076924   -0.138985   -0.058754    12.942015        |
 |             4        -0.076924    0.138985    0.058754    12.942015        |
 |             5         0.076924    0.138985   -0.058754    12.942015        |
 |             6        -0.076924   -0.138985    0.058754    12.942015        |
 |             7         0.000047    0.000000    0.169370    12.942015        |
 |             8        -0.000047    0.000000   -0.169370    12.942015        |
 +----------------------------------------------------------------------------+
 |                           b_k Directions (Ang^-1)                          |
 |                           -----------------------                          |
 |            No.           x           y           z                         |
 |            ---        --------------------------------                     |
 |             1         0.153895    0.000000    0.051862                     |
 |             2         0.076924   -0.138985   -0.058754                     |
 |             3         0.076924    0.138985   -0.058754                     |
 |             4         0.000047    0.000000    0.169370                     |
 +----------------------------------------------------------------------------+
  
 Time to get kmesh              2.491 (sec)
 *============================================================================*
 |                              MEMORY ESTIMATE                               |
 |         Maximum RAM allocated during each phase of the calculation         |
 *============================================================================*
 |                        Disentanglement          131.40 Mb                  |
 |                            Wannierise:           89.98 Mb                  |
 |                          plot_wannier:           89.98 Mb                  |
 *----------------------------------------------------------------------------*
  
 Reading restart information from file wannier90.chk :
 written on 10Jul2025 at 17:58:56 ... done

 Restarting Wannier90 from plotting routines ...

 *---------------------------------------------------------------------------*
 |                               PLOTTING                                    |
 *---------------------------------------------------------------------------*

 !!!! Kpoint grid does not include Gamma.  Interpolation may be incorrect. !!!!

 Calculating interpolated band-structure

 Time to calculate interpolated band structure       8.128 (sec)

 Time for plotting             10.262 (sec)
 Total Execution Time          12.988 (sec)

 *===========================================================================*
 |                             TIMING INFORMATION                            |
 *===========================================================================*
 |    Tag                                                Ncalls      Time (s)|
 |---------------------------------------------------------------------------|
 |kmesh: get                                        :         1         2.491|
 |plot: main                                        :         1        10.262|
 *---------------------------------------------------------------------------*

 All done: wannier90 exiting
