
             +---------------------------------------------------+
             |                                                   |
             |                   WANNIER90                       |
             |                                                   |
             +---------------------------------------------------+
             |                                                   |
             |        Welcome to the Maximally-Localized         |
             |        Generalized Wannier Functions code         |
             |            http://www.wannier.org                 |
             |                                                   |
             |                                                   |
             |  Wannier90 Developer Group:                       |
             |    Giovanni Pizzi    (EPFL)                       |
             |    Valerio Vitale    (Cambridge)                  |
             |    David Vanderbilt  (Rutgers University)         |
             |    Nicola Marzari    (EPFL)                       |
             |    Ivo Souza         (Universidad del Pais Vasco) |
             |    Arash A. Mostofi  (Imperial College London)    |
             |    Jonathan R. Yates (University of Oxford)       |
             |                                                   |
             |  For the full list of Wannier90 3.x authors,      |
             |  please check the code documentation and the      |
             |  README on the GitHub page of the code            |
             |                                                   |
             |                                                   |
             |  Please cite                                      |
             |                                                   |
             |  [ref] "Wannier90 as a community code:            |
             |        new features and applications",            |
             |        G. Pizzi et al., J. Phys. Cond. Matt. 32,  |
             |        165902 (2020).                             |
             |        http://doi.org/10.1088/1361-648X/ab51ff    |
             |                                                   |
             |  in any publications arising from the use of      |
             |  this code. For the method please cite            |
             |                                                   |
             |  [ref] "Maximally Localized Generalised Wannier   |
             |         Functions for Composite Energy Bands"     |
             |         N. Marzari and D. Vanderbilt              |
             |         Phys. Rev. B 56 12847 (1997)              |
             |                                                   |
             |  [ref] "Maximally Localized Wannier Functions     |
             |         for Entangled Energy Bands"               |
             |         I. Souza, N. Marzari and D. Vanderbilt    |
             |         Phys. Rev. B 65 035109 (2001)             |
             |                                                   |
             |                                                   |
             | Copyright (c) 1996-2020                           |
             |        The Wannier90 Developer Group and          |
             |        individual contributors                    |
             |                                                   |
             |      Release: 3.1.0        5th March    2020      |
             |                                                   |
             | This program is free software; you can            |
             | redistribute it and/or modify it under the terms  |
             | of the GNU General Public License as published by |
             | the Free Software Foundation; either version 2 of |
             | the License, or (at your option) any later version|
             |                                                   |
             | This program is distributed in the hope that it   |
             | will be useful, but WITHOUT ANY WARRANTY; without |
             | even the implied warranty of MERCHANTABILITY or   |
             | FITNESS FOR A PARTICULAR PURPOSE. See the GNU     |
             | General Public License for more details.          |
             |                                                   |
             | You should have received a copy of the GNU General|
             | Public License along with this program; if not,   |
             | write to the Free Software Foundation, Inc.,      |
             | 675 Mass Ave, Cambridge, MA 02139, USA.           |
             |                                                   |
             +---------------------------------------------------+
             |    Execution started on 26Jul2025 at 16:21:55     |
             +---------------------------------------------------+
 
 ******************************************************************************
 * -> Using CODATA 2006 constant values                                       *
 *    (http://physics.nist.gov/cuu/Constants/index.html)                      *
 * -> Using Bohr value from CODATA                                            *
 ******************************************************************************
 

 Running in serial (with serial executable)

                                    ------
                                    SYSTEM
                                    ------

                              Lattice Vectors (Ang)
                    a_1     9.541944  -2.062067  -0.041987
                    a_2     9.541944   2.062067  -0.041987
                    a_3     9.111922   0.000000   3.503636

                   Unit Cell Volume:     139.45381  (Ang^3)

                        Reciprocal-Space Vectors (Ang^-1)
                    b_1     0.325515  -1.523516  -0.846569
                    b_2     0.325515   1.523516  -0.846569
                    b_3     0.007802   0.000000   1.773042
  
 *----------------------------------------------------------------------------*
 |   Site       Fractional Coordinate          Cartesian Coordinate (Ang)     |
 +----------------------------------------------------------------------------+
 | Bi   1   0.59928   0.59928   0.59928   |   16.89718  -0.00000   2.04933    |
 | Bi   2   0.40072   0.40072   0.40072   |   11.29864  -0.00000   1.37033    |
 | Se   1   0.00000   0.00000   0.00000   |    0.00000   0.00000   0.00000    |
 | Se   2   0.78939   0.78939   0.78939   |   22.25736  -0.00000   2.69943    |
 | Se   3   0.21061   0.21061   0.21061   |    5.93845   0.00000   0.72023    |
 *----------------------------------------------------------------------------*
                                ------------
                                K-POINT GRID
                                ------------
  
             Grid size =  6 x  6 x  6      Total points =  216
  
  
 *---------------------------------- MAIN ------------------------------------*
 |  Number of Wannier Functions               :                15             |
 |  Number of Objective Wannier Functions     :                15             |
 |  Number of input Bloch states              :                16             |
 |  Output verbosity (1=low, 5=high)          :                 1             |
 |  Timing Level (1=low, 5=high)              :                 1             |
 |  Optimisation (0=memory, 3=speed)          :                 3             |
 |  Length Unit                               :               Ang             |
 |  Post-processing setup (write *.nnkp)      :                 F             |
 |  Using Gamma-only branch of algorithms     :                 F             |
 *----------------------------------------------------------------------------*
 *------------------------------- WANNIERISE ---------------------------------*
 |  Total number of iterations                :                 0             |
 |  Number of CG steps before reset           :                 5             |
 |  Trial step length for line search         :             2.000             |
 |  Convergence tolerence                     :         0.100E-09             |
 |  Convergence window                        :                -1             |
 |  Iterations between writing output         :                 1             |
 |  Iterations between backing up to disk     :               100             |
 |  Write r^2_nm to file                      :                 F             |
 |  Write xyz WF centres to file              :                 F             |
 |  Write on-site energies <0n|H|0n> to file  :                 F             |
 |  Use guiding centre to control phases      :                 F             |
 |  Use phases for initial projections        :                 F             |
 *----------------------------------------------------------------------------*
 *------------------------------- DISENTANGLE --------------------------------*
 |  Using band disentanglement                :                 T             |
 |  Total number of iterations                :                 0             |
 |  Mixing ratio                              :             0.500             |
 |  Convergence tolerence                     :         1.000E-10             |
 |  Convergence window                        :                 3             |
 *----------------------------------------------------------------------------*
 Time to read parameters        0.047 (sec)

 *---------------------------------- K-MESH ----------------------------------*
 +----------------------------------------------------------------------------+
 |                    Distance to Nearest-Neighbour Shells                    |
 |                    ------------------------------------                    |
 |          Shell             Distance (Ang^-1)          Multiplicity         |
 |          -----             -----------------          ------------         |
 |             1                   0.110610                      2            |
 |             2                   0.221220                      2            |
 |             3                   0.295510                      6            |
 |             4                   0.302331                      6            |
 |             5                   0.328203                      6            |
 |             6                   0.331830                      2            |
 |             7                   0.346340                      6            |
 |             8                   0.390611                      6            |
 |             9                   0.415894                      6            |
 |            10                   0.442440                      2            |
 |            11                   0.471069                      6            |
 |            12                   0.500454                      6            |
 |            13                   0.507839                      6            |
 |            14                   0.519745                     12            |
 |            15                   0.553050                      2            |
 |            16                   0.553930                     12            |
 |            17                   0.561876                      6            |
 |            18                   0.587560                      6            |
 |            19                   0.591020                      6            |
 |            20                   0.593640                      6            |
 |            21                   0.604663                      6            |
 |            22                   0.606639                     12            |
 |            23                   0.614697                      6            |
 |            24                   0.640685                      6            |
 |            25                   0.656406                      6            |
 |            26                   0.658766                      6            |
 |            27                   0.663660                      2            |
 |            28                   0.673538                     12            |
 |            29                   0.691977                      6            |
 |            30                   0.692681                      6            |
 |            31                   0.712989                      6            |
 |            32                   0.750843                     12            |
 |            33                   0.757367                      6            |
 |            34                   0.759414                      6            |
 |            35                   0.774270                      2            |
 |            36                   0.776612                     12            |
 +----------------------------------------------------------------------------+
 | The b-vectors are chosen automatically                                     |
 | The following shells are used:   1,  3                                     |
 +----------------------------------------------------------------------------+
 |                        Shell   # Nearest-Neighbours                        |
 |                        -----   --------------------                        |
 |                          1               2                                 |
 |                          3               6                                 |
 +----------------------------------------------------------------------------+
 | Completeness relation is fully satisfied [Eq. (B1), PRB 56, 12847 (1997)]  |
 +----------------------------------------------------------------------------+
 |                  b_k Vectors (Ang^-1) and Weights (Ang^2)                  |
 |                  ----------------------------------------                  |
 |            No.         b_k(x)      b_k(y)      b_k(z)        w_b           |
 |            ---        --------------------------------     --------        |
 |             1         0.109805    0.000000    0.013317    39.575298        |
 |             2        -0.109805    0.000000   -0.013317    39.575298        |
 |             3         0.054253   -0.253919   -0.141095     3.877469        |
 |             4        -0.054253    0.253919    0.141095     3.877469        |
 |             5         0.054253    0.253919   -0.141095     3.877469        |
 |             6        -0.054253   -0.253919    0.141095     3.877469        |
 |             7         0.001300    0.000000    0.295507     3.877469        |
 |             8        -0.001300    0.000000   -0.295507     3.877469        |
 +----------------------------------------------------------------------------+
 |                           b_k Directions (Ang^-1)                          |
 |                           -----------------------                          |
 |            No.           x           y           z                         |
 |            ---        --------------------------------                     |
 |             1         0.109805    0.000000    0.013317                     |
 |             2         0.054253   -0.253919   -0.141095                     |
 |             3         0.054253    0.253919   -0.141095                     |
 |             4         0.001300    0.000000    0.295507                     |
 +----------------------------------------------------------------------------+
  
 Time to get kmesh              0.697 (sec)
 *============================================================================*
 |                              MEMORY ESTIMATE                               |
 |         Maximum RAM allocated during each phase of the calculation         |
 *============================================================================*
 |                        Disentanglement           15.18 Mb                  |
 |                            Wannierise:           16.75 Mb                  |
 |                          plot_wannier:           16.75 Mb                  |
 *----------------------------------------------------------------------------*
  
 Starting a new Wannier90 calculation ...


 Reading overlaps from wannier90.mmn    : File generated by VASP: unknown system

 Reading projections from wannier90.amn : File generated by VASP: unknown system

 Time to read overlaps          0.553 (sec)

 *------------------------------- DISENTANGLE --------------------------------*
 +----------------------------------------------------------------------------+
 |                              Energy  Windows                               |
 |                              ---------------                               |
 |                   Outer:   -3.00000  to   10.00000  (eV)                   |
 |                   Inner:   -3.00000  to    6.00000  (eV)                   |
 +----------------------------------------------------------------------------+
   Number of target bands to extract:   15

                   Unitarised projection of Wannier functions                  
                   ------------------------------------------                  
   A_mn = <psi_m|g_n> --> S = A.A^+ --> U = S^-1/2.A
   In dis_project... done
   Using an inner window (linner = T)
   In dis_proj_froz... done

                   Extraction of optimally-connected subspace                  
                   ------------------------------------------                  
 +---------------------------------------------------------------------+<-- DIS
 |  Iter     Omega_I(i-1)      Omega_I(i)      Delta (frac.)    Time   |<-- DIS
 +---------------------------------------------------------------------+<-- DIS

     <<< Warning: Maximum number of disentanglement iterations reached >>>
          <<< Disentanglement convergence criteria not satisfied >>>

        Final Omega_I     0.00000000 (Ang^2)

 +----------------------------------------------------------------------------+

 Time to disentangle bands      0.111 (sec)

 Writing checkpoint file wannier90.chk... done


 *------------------------------- WANNIERISE ---------------------------------*
 +--------------------------------------------------------------------+<-- CONV
 | Iter  Delta Spread     RMS Gradient      Spread (Ang^2)      Time  |<-- CONV
 +--------------------------------------------------------------------+<-- CONV

 ------------------------------------------------------------------------------
 Initial State
  WF centre and spread    1  (-11.294802,  0.000000, -1.396102 )     3.35063705
  WF centre and spread    2  (-11.305647,  0.000000, -1.377560 )     3.42500182
  WF centre and spread    3  (-11.301664, -0.000001, -1.338526 )     3.34992061
  WF centre and spread    4  ( 11.294796,  0.000000,  1.396102 )     3.35063416
  WF centre and spread    5  ( 11.305655,  0.000000,  1.377559 )     3.42502215
  WF centre and spread    6  ( 11.301657, -0.000001,  1.338527 )     3.34991748
  WF centre and spread    7  (  0.000001, -0.000000, -0.000001 )     2.10804439
  WF centre and spread    8  ( -0.000000, -0.000000, -0.000000 )     2.27534333
  WF centre and spread    9  (  0.000000,  0.000000,  0.000001 )     2.10599229
  WF centre and spread   10  ( -5.953728, -0.000000, -0.737912 )     2.13311533
  WF centre and spread   11  ( -5.921865, -0.000000, -0.733007 )     2.24270725
  WF centre and spread   12  ( -5.959737, -0.000000, -0.692356 )     2.13128131
  WF centre and spread   13  (  5.953732, -0.000000,  0.737912 )     2.13311164
  WF centre and spread   14  (  5.921867, -0.000000,  0.733007 )     2.24269830
  WF centre and spread   15  (  5.959740, -0.000000,  0.692357 )     2.13127770
  Sum of centres and spreads (  0.000005, -0.000001,  0.000001 )    39.75470480

      0     0.398E+02     0.0000000000       39.7547047811       0.00  <-- CONV
        O_D=      0.0497631 O_OD=      0.9328713 O_TOT=     39.7547048 <-- SPRD
 ------------------------------------------------------------------------------
 Final State
  WF centre and spread    1  (-11.294802,  0.000000, -1.396102 )     3.35063705
  WF centre and spread    2  (-11.305647,  0.000000, -1.377560 )     3.42500182
  WF centre and spread    3  (-11.301664, -0.000001, -1.338526 )     3.34992061
  WF centre and spread    4  ( 11.294796,  0.000000,  1.396102 )     3.35063416
  WF centre and spread    5  ( 11.305655,  0.000000,  1.377559 )     3.42502215
  WF centre and spread    6  ( 11.301657, -0.000001,  1.338527 )     3.34991748
  WF centre and spread    7  (  0.000001, -0.000000, -0.000001 )     2.10804439
  WF centre and spread    8  ( -0.000000, -0.000000, -0.000000 )     2.27534333
  WF centre and spread    9  (  0.000000,  0.000000,  0.000001 )     2.10599229
  WF centre and spread   10  ( -5.953728, -0.000000, -0.737912 )     2.13311533
  WF centre and spread   11  ( -5.921865, -0.000000, -0.733007 )     2.24270725
  WF centre and spread   12  ( -5.959737, -0.000000, -0.692356 )     2.13128131
  WF centre and spread   13  (  5.953732, -0.000000,  0.737912 )     2.13311164
  WF centre and spread   14  (  5.921867, -0.000000,  0.733007 )     2.24269830
  WF centre and spread   15  (  5.959740, -0.000000,  0.692357 )     2.13127770
  Sum of centres and spreads (  0.000005, -0.000001,  0.000001 )    39.75470480

         Spreads (Ang^2)       Omega I      =    38.772070409
        ================       Omega D      =     0.049763072
                               Omega OD     =     0.932871300
    Final Spread (Ang^2)       Omega Total  =    39.754704781
 ------------------------------------------------------------------------------
 Time for wannierise            0.040 (sec)

 Writing checkpoint file wannier90.chk... done

 Time for plotting              0.000 (sec)
 Total Execution Time           1.549 (sec)

 *===========================================================================*
 |                             TIMING INFORMATION                            |
 *===========================================================================*
 |    Tag                                                Ncalls      Time (s)|
 |---------------------------------------------------------------------------|
 |kmesh: get                                        :         1         0.680|
 |overlap: allocate                                 :         1         0.001|
 |overlap: read                                     :         1         0.539|
 |dis: main                                         :         1         0.112|
 |wann: main                                        :         1         0.040|
 |plot: main                                        :         1         0.000|
 *---------------------------------------------------------------------------*

 All done: wannier90 exiting

             +---------------------------------------------------+
             |                                                   |
             |                   WANNIER90                       |
             |                                                   |
             +---------------------------------------------------+
             |                                                   |
             |        Welcome to the Maximally-Localized         |
             |        Generalized Wannier Functions code         |
             |            http://www.wannier.org                 |
             |                                                   |
             |                                                   |
             |  Wannier90 Developer Group:                       |
             |    Giovanni Pizzi    (EPFL)                       |
             |    Valerio Vitale    (Cambridge)                  |
             |    David Vanderbilt  (Rutgers University)         |
             |    Nicola Marzari    (EPFL)                       |
             |    Ivo Souza         (Universidad del Pais Vasco) |
             |    Arash A. Mostofi  (Imperial College London)    |
             |    Jonathan R. Yates (University of Oxford)       |
             |                                                   |
             |  For the full list of Wannier90 3.x authors,      |
             |  please check the code documentation and the      |
             |  README on the GitHub page of the code            |
             |                                                   |
             |                                                   |
             |  Please cite                                      |
             |                                                   |
             |  [ref] "Wannier90 as a community code:            |
             |        new features and applications",            |
             |        G. Pizzi et al., J. Phys. Cond. Matt. 32,  |
             |        165902 (2020).                             |
             |        http://doi.org/10.1088/1361-648X/ab51ff    |
             |                                                   |
             |  in any publications arising from the use of      |
             |  this code. For the method please cite            |
             |                                                   |
             |  [ref] "Maximally Localized Generalised Wannier   |
             |         Functions for Composite Energy Bands"     |
             |         N. Marzari and D. Vanderbilt              |
             |         Phys. Rev. B 56 12847 (1997)              |
             |                                                   |
             |  [ref] "Maximally Localized Wannier Functions     |
             |         for Entangled Energy Bands"               |
             |         I. Souza, N. Marzari and D. Vanderbilt    |
             |         Phys. Rev. B 65 035109 (2001)             |
             |                                                   |
             |                                                   |
             | Copyright (c) 1996-2020                           |
             |        The Wannier90 Developer Group and          |
             |        individual contributors                    |
             |                                                   |
             |      Release: 3.1.0        5th March    2020      |
             |                                                   |
             | This program is free software; you can            |
             | redistribute it and/or modify it under the terms  |
             | of the GNU General Public License as published by |
             | the Free Software Foundation; either version 2 of |
             | the License, or (at your option) any later version|
             |                                                   |
             | This program is distributed in the hope that it   |
             | will be useful, but WITHOUT ANY WARRANTY; without |
             | even the implied warranty of MERCHANTABILITY or   |
             | FITNESS FOR A PARTICULAR PURPOSE. See the GNU     |
             | General Public License for more details.          |
             |                                                   |
             | You should have received a copy of the GNU General|
             | Public License along with this program; if not,   |
             | write to the Free Software Foundation, Inc.,      |
             | 675 Mass Ave, Cambridge, MA 02139, USA.           |
             |                                                   |
             +---------------------------------------------------+
             |    Execution started on 26Jul2025 at 16:22:06     |
             +---------------------------------------------------+
 
 ******************************************************************************
 * -> Using CODATA 2006 constant values                                       *
 *    (http://physics.nist.gov/cuu/Constants/index.html)                      *
 * -> Using Bohr value from CODATA                                            *
 ******************************************************************************
 

 Running in serial (with serial executable)

                                    ------
                                    SYSTEM
                                    ------

                              Lattice Vectors (Ang)
                    a_1     9.541944  -2.062067  -0.041987
                    a_2     9.541944   2.062067  -0.041987
                    a_3     9.111922   0.000000   3.503636

                   Unit Cell Volume:     139.45381  (Ang^3)

                        Reciprocal-Space Vectors (Ang^-1)
                    b_1     0.325515  -1.523516  -0.846569
                    b_2     0.325515   1.523516  -0.846569
                    b_3     0.007802   0.000000   1.773042
  
 *----------------------------------------------------------------------------*
 |   Site       Fractional Coordinate          Cartesian Coordinate (Ang)     |
 +----------------------------------------------------------------------------+
 | Bi   1   0.59928   0.59928   0.59928   |   16.89718  -0.00000   2.04933    |
 | Bi   2   0.40072   0.40072   0.40072   |   11.29864  -0.00000   1.37033    |
 | Se   1   0.00000   0.00000   0.00000   |    0.00000   0.00000   0.00000    |
 | Se   2   0.78939   0.78939   0.78939   |   22.25736  -0.00000   2.69943    |
 | Se   3   0.21061   0.21061   0.21061   |    5.93845   0.00000   0.72023    |
 *----------------------------------------------------------------------------*
                                ------------
                                K-POINT GRID
                                ------------
  
             Grid size =  6 x  6 x  6      Total points =  216
  
  
 *---------------------------------- MAIN ------------------------------------*
 |  Number of Wannier Functions               :                15             |
 |  Number of Objective Wannier Functions     :                15             |
 |  Number of input Bloch states              :                16             |
 |  Output verbosity (1=low, 5=high)          :                 1             |
 |  Timing Level (1=low, 5=high)              :                 1             |
 |  Optimisation (0=memory, 3=speed)          :                 3             |
 |  Length Unit                               :               Ang             |
 |  Post-processing setup (write *.nnkp)      :                 F             |
 |  Using Gamma-only branch of algorithms     :                 F             |
 *----------------------------------------------------------------------------*
 *------------------------------- WANNIERISE ---------------------------------*
 |  Total number of iterations                :                 0             |
 |  Number of CG steps before reset           :                 5             |
 |  Trial step length for line search         :             2.000             |
 |  Convergence tolerence                     :         0.100E-09             |
 |  Convergence window                        :                -1             |
 |  Iterations between writing output         :                 1             |
 |  Iterations between backing up to disk     :               100             |
 |  Write r^2_nm to file                      :                 F             |
 |  Write xyz WF centres to file              :                 F             |
 |  Write on-site energies <0n|H|0n> to file  :                 F             |
 |  Use guiding centre to control phases      :                 F             |
 |  Use phases for initial projections        :                 F             |
 *----------------------------------------------------------------------------*
 *------------------------------- DISENTANGLE --------------------------------*
 |  Using band disentanglement                :                 T             |
 |  Total number of iterations                :                 0             |
 |  Mixing ratio                              :             0.500             |
 |  Convergence tolerence                     :         1.000E-10             |
 |  Convergence window                        :                 3             |
 *----------------------------------------------------------------------------*
 *-------------------------------- PLOTTING ----------------------------------*
 |  Plotting interpolated bandstructure       :                 T             |
 |   Number of K-path sections                :                 9             |
 |   Divisions along first K-path section     :                40             |
 |   Output format                            :          gnuplot              |
 |   Output mode                              :               s-k             |
 *----------------------------------------------------------------------------*
 |   K-space path sections:                                                   |
 |    From: G       0.000  0.000  0.000     To: L       0.500  0.000  0.000   |
 |    From: L       0.500  0.000  0.000     To: B1      0.500  0.177 -0.177   |
 |    From: B       0.823  0.500  0.177     To: Z       0.500  0.500  0.500   |
 |    From: Z       0.500  0.500  0.500     To: G       0.000  0.000  0.000   |
 |    From: G       0.000  0.000  0.000     To: X       0.339  0.000 -0.339   |
 |    From: Q       0.661  0.339  0.000     To: F       0.500  0.500  0.000   |
 |    From: F       0.500  0.500  0.000     To: P1      0.661  0.661  0.177   |
 |    From: P1      0.661  0.661  0.177     To: Z       0.500  0.500  0.500   |
 |    From: L       0.500  0.000  0.000     To: P       0.823  0.339  0.339   |
 *----------------------------------------------------------------------------*
 |  Plotting Hamiltonian in WF basis          :                 T             |
 *----------------------------------------------------------------------------*
 Time to read parameters        0.021 (sec)

 *---------------------------------- K-MESH ----------------------------------*
 +----------------------------------------------------------------------------+
 |                    Distance to Nearest-Neighbour Shells                    |
 |                    ------------------------------------                    |
 |          Shell             Distance (Ang^-1)          Multiplicity         |
 |          -----             -----------------          ------------         |
 |             1                   0.110610                      2            |
 |             2                   0.221220                      2            |
 |             3                   0.295510                      6            |
 |             4                   0.302331                      6            |
 |             5                   0.328203                      6            |
 |             6                   0.331830                      2            |
 |             7                   0.346340                      6            |
 |             8                   0.390611                      6            |
 |             9                   0.415894                      6            |
 |            10                   0.442440                      2            |
 |            11                   0.471069                      6            |
 |            12                   0.500454                      6            |
 |            13                   0.507839                      6            |
 |            14                   0.519745                     12            |
 |            15                   0.553050                      2            |
 |            16                   0.553930                     12            |
 |            17                   0.561876                      6            |
 |            18                   0.587560                      6            |
 |            19                   0.591020                      6            |
 |            20                   0.593640                      6            |
 |            21                   0.604663                      6            |
 |            22                   0.606639                     12            |
 |            23                   0.614697                      6            |
 |            24                   0.640685                      6            |
 |            25                   0.656406                      6            |
 |            26                   0.658766                      6            |
 |            27                   0.663660                      2            |
 |            28                   0.673538                     12            |
 |            29                   0.691977                      6            |
 |            30                   0.692681                      6            |
 |            31                   0.712989                      6            |
 |            32                   0.750843                     12            |
 |            33                   0.757367                      6            |
 |            34                   0.759414                      6            |
 |            35                   0.774270                      2            |
 |            36                   0.776612                     12            |
 +----------------------------------------------------------------------------+
 | The b-vectors are chosen automatically                                     |
 | The following shells are used:   1,  3                                     |
 +----------------------------------------------------------------------------+
 |                        Shell   # Nearest-Neighbours                        |
 |                        -----   --------------------                        |
 |                          1               2                                 |
 |                          3               6                                 |
 +----------------------------------------------------------------------------+
 | Completeness relation is fully satisfied [Eq. (B1), PRB 56, 12847 (1997)]  |
 +----------------------------------------------------------------------------+
 |                  b_k Vectors (Ang^-1) and Weights (Ang^2)                  |
 |                  ----------------------------------------                  |
 |            No.         b_k(x)      b_k(y)      b_k(z)        w_b           |
 |            ---        --------------------------------     --------        |
 |             1         0.109805    0.000000    0.013317    39.575298        |
 |             2        -0.109805    0.000000   -0.013317    39.575298        |
 |             3         0.054253   -0.253919   -0.141095     3.877469        |
 |             4        -0.054253    0.253919    0.141095     3.877469        |
 |             5         0.054253    0.253919   -0.141095     3.877469        |
 |             6        -0.054253   -0.253919    0.141095     3.877469        |
 |             7         0.001300    0.000000    0.295507     3.877469        |
 |             8        -0.001300    0.000000   -0.295507     3.877469        |
 +----------------------------------------------------------------------------+
 |                           b_k Directions (Ang^-1)                          |
 |                           -----------------------                          |
 |            No.           x           y           z                         |
 |            ---        --------------------------------                     |
 |             1         0.109805    0.000000    0.013317                     |
 |             2         0.054253   -0.253919   -0.141095                     |
 |             3         0.054253    0.253919   -0.141095                     |
 |             4         0.001300    0.000000    0.295507                     |
 +----------------------------------------------------------------------------+
  
 Time to get kmesh              0.563 (sec)
 *============================================================================*
 |                              MEMORY ESTIMATE                               |
 |         Maximum RAM allocated during each phase of the calculation         |
 *============================================================================*
 |                        Disentanglement           15.18 Mb                  |
 |                            Wannierise:           16.75 Mb                  |
 |                          plot_wannier:           16.75 Mb                  |
 *----------------------------------------------------------------------------*
  
 Reading restart information from file wannier90.chk :
 written on 26Jul2025 at 16:22:04 ... done

 Restarting Wannier90 from plotting routines ...

 *---------------------------------------------------------------------------*
 |                               PLOTTING                                    |
 *---------------------------------------------------------------------------*

 !!!! Kpoint grid does not include Gamma.  Interpolation may be incorrect. !!!!

 Calculating interpolated band-structure

 Time to calculate interpolated band structure       1.593 (sec)

 Time for plotting              1.797 (sec)
 Total Execution Time           2.393 (sec)

 *===========================================================================*
 |                             TIMING INFORMATION                            |
 *===========================================================================*
 |    Tag                                                Ncalls      Time (s)|
 |---------------------------------------------------------------------------|
 |kmesh: get                                        :         1         0.563|
 |plot: main                                        :         1         1.797|
 *---------------------------------------------------------------------------*

 All done: wannier90 exiting
----------------------------------------------------------------*
 |  Plotting Hamiltonian in WF basis          :                 T             |
 *----------------------------------------------------------------------------*
 Time to read parameters        0.043 (sec)

 *---------------------------------- K-MESH ----------------------------------*
 +----------------------------------------------------------------------------+
 |                    Distance to Nearest-Neighbour Shells                    |
 |                    ------------------------------------                    |
 |          Shell             Distance (Ang^-1)          Multiplicity         |
 |          -----             -----------------          ------------         |
 |             1                   0.110610                      2            |
 |             2                   0.221220                      2            |
 |             3                   0.295510                      6            |
 |             4                   0.302331                      6            |
 |             5                   0.328203                      6            |
 |             6                   0.331830                      2            |
 |             7                   0.346340                      6            |
 |             8                   0.390611                      6            |
 |             9                   0.415894                      6            |
 |            10                   0.442440                      2            |
 |            11                   0.471069                      6            |
 |            12                   0.500454                      6            |
 |            13                   0.507839                      6            |
 |            14                   0.519745                     12            |
 |            15                   0.553050                      2            |
 |            16                   0.553930                     12            |
 |            17                   0.561876                      6            |
 |            18                   0.587560                      6            |
 |            19                   0.591020                      6            |
 |            20                   0.593640                      6            |
 |            21                   0.604663                      6            |
 |            22                   0.606639                     12            |
 |            23                   0.614697                      6            |
 |            24                   0.640685                      6            |
 |            25                   0.656406                      6            |
 |            26                   0.658766                      6            |
 |            27                   0.663660                      2            |
 |            28                   0.673538                     12            |
 |            29                   0.691977                      6            |
 |            30                   0.692681                      6            |
 |            31                   0.712989                      6            |
 |            32                   0.750843                     12            |
 |            33                   0.757367                      6            |
 |            34                   0.759414                      6            |
 |            35                   0.774270                      2            |
 |            36                   0.776612                     12            |
 +----------------------------------------------------------------------------+
 | The b-vectors are chosen automatically                                     |
 | The following shells are used:   1,  3                                     |
 +----------------------------------------------------------------------------+
 |                        Shell   # Nearest-Neighbours                        |
 |                        -----   --------------------                        |
 |                          1               2                                 |
 |                          3               6                                 |
 +----------------------------------------------------------------------------+
 | Completeness relation is fully satisfied [Eq. (B1), PRB 56, 12847 (1997)]  |
 +----------------------------------------------------------------------------+
 |                  b_k Vectors (Ang^-1) and Weights (Ang^2)                  |
 |                  ----------------------------------------                  |
 |            No.         b_k(x)      b_k(y)      b_k(z)        w_b           |
 |            ---        --------------------------------     --------        |
 |             1         0.109805    0.000000    0.013317    39.575298        |
 |             2        -0.109805    0.000000   -0.013317    39.575298        |
 |             3         0.054253   -0.253919   -0.141095     3.877469        |
 |             4        -0.054253    0.253919    0.141095     3.877469        |
 |             5         0.054253    0.253919   -0.141095     3.877469        |
 |             6        -0.054253   -0.253919    0.141095     3.877469        |
 |             7         0.001300    0.000000    0.295507     3.877469        |
 |             8        -0.001300    0.000000   -0.295507     3.877469        |
 +----------------------------------------------------------------------------+
 |                           b_k Directions (Ang^-1)                          |
 |                           -----------------------                        |    |            No.           x           y           z                         |
 |            ---        --------------------------------                     |
 |             1         0.109805    0.000000    0.013317                     |
 |             2         0.054253   -0.253919   -0.141095                     |
 |             3         0.054253    0.253919   -0.141095                     |
 |             4         0.001300    0.000000    0.295507                     |
 +----------------------------------------------------------------------------+
  
 Time to get kmesh              0.657 (sec)
 *============================================================================*
 |                              MEMORY ESTIMATE                               |
 |         Maximum RAM allocated during each phase of the calculation         |
 *============================================================================*
 |                        Disentanglement           15.18 Mb                  |
 |                            Wannierise:           16.75 Mb                  |
 |                          plot_wannier:           16.75 Mb                  |
 *----------------------------------------------------------------------------*
  
 Reading restart information from file wannier90.chk :
 written on 26Jul2025 at 16:22:04 ... done

 Restarting Wannier90 from plotting routines ...

 *---------------------------------------------------------------------------*
 |                               PLOTTING                                    |
 *---------------------------------------------------------------------------*

 !!!! Kpoint grid does not include Gamma.  Interpolation may be incorrect. !!!!

 Calculating interpolated band-structure

 Time to calculate interpolated band structure       1.630 (sec)

 Time for plotting              2.003 (sec)
 Total Execution Time           2.718 (sec)

 *===========================================================================*
 |                             TIMING INFORMATION                            |
 *===========================================================================*
 |    Tag                                                Ncalls      Time (s)|
 |---------------------------------------------------------------------------|
 |kmesh: get                                        :         1         0.657|
 |plot: main                                        :         1         2.003|
 *---------------------------------------------------------------------------*

 All done: wannier90 exiting
      1               2                                 |
 |                          3               6                                 |
 +----------------------------------------------------------------------------+
 | Completeness relation is fully satisfied [Eq. (B1), PRB 56, 12847 (1997)]  |
 +----------------------------------------------------------------------------+
 |                  b_k Vectors (Ang^-1) and Weights (Ang^2)                  |
 |                  ----------------------------------------                  |
 |            No.         b_k(x)      b_k(y)      b_k(z)        w_b           |
 |            ---        --------------------------------     --------        |
 |             1         0.109805    0.000000    0.013317    39.575298        |
 |             2        -0.109805    0.000000   -0.013317    39.575298        |
 |             3         0.054253   -0.253919   -0.141095     3.877469        |
 |             4        -0.054253    0.253919    0.141095     3.877469        |
 |             5         0.054253    0.253919   -0.141095     3.877469        |
 |             6        -0.054253   -0.253919    0.141095     3.877469        |
 |             7         0.001300    0.000000    0.295507     3.877469        |
 |             8        -0.001300    0.000000   -0.295507     3.877469        |
 +----------------------------------------------------------------------------+
 |                           b_k Directions (Ang^-1)                          |
 |                           -----------------------                          |
 |            No.           x           y           z                         |
 |            ---        --------------------------------                     |
 |             1         0.109805    0.000000    0.013317                     |
 |             2         0.054253   -0.253919   -0.141095                     |
 |             3         0.054253    0.253919   -0.141095                     |
 |             4         0.001300    0.000000    0.295507                     |
 +----------------------------------------------------------------------------+
  
 Time to get kmesh              0.656 (sec)
 *============================================================================*
 |                              MEMORY ESTIMATE                               |
 |         Maximum RAM allocated during each phase of the calculation         |
 *============================================================================*
 |                        Disentanglement           15.18 Mb                  |
 |                            Wannierise:           16.75 Mb                  |
 |                          plot_wannier:           16.75 Mb                  |
 *----------------------------------------------------------------------------*
  
 Reading restart information from file wannier90.chk :
 written on 26Jul2025 at 16:22:04 ... done

 Restarting Wannier90 from plotting routines ...

 *---------------------------------------------------------------------------*
 |                               PLOTTING                                    |
 *---------------------------------------------------------------------------*

 !!!! Kpoint grid does not include Gamma.  Interpolation may be incorrect. !!!!

 Calculating interpolated band-structure

 Time to calculate interpolated band structure       1.624 (sec)

 Time for plotting              1.855 (sec)
 Total Execution Time           2.569 (sec)

 *===========================================================================*
 |                             TIMING INFORMATION                            |
 *===========================================================================*
 |    Tag                                                Ncalls      Time (s)|
 |---------------------------------------------------------------------------|
 |kmesh: get                                        :         1         0.656|
 |plot: main                                        :         1         1.855|
 *---------------------------------------------------------------------------*

 All done: wannier90 exiting
----------------------------------------------------------------*
 |  Plotting Hamiltonian in WF basis          :                 T             |
 *----------------------------------------------------------------------------*
 Time to read parameters        0.043 (sec)

 *---------------------------------- K-MESH ----------------------------------*
 +----------------------------------------------------------------------------+
 |                    Distance to Nearest-Neighbour Shells                    |
 |                    ------------------------------------                    |
 |          Shell             Distance (Ang^-1)          Multiplicity         |
 |          -----             -----------------          ------------         |
 |             1                   0.110610                      2            |
 |             2                   0.221220                      2            |
 |             3                   0.295510                      6            |
 |             4                   0.302331                      6            |
 |             5                   0.328203                      6            |
 |             6                   0.331830                      2            |
 |             7                   0.346340                      6            |
 |             8                   0.390611                      6            |
 |             9                   0.415894                      6            |
 |            10                   0.442440                      2            |
 |            11                   0.471069                      6            |
 |            12                   0.500454                      6            |
 |            13                   0.507839                      6            |
 |            14                   0.519745                     12            |
 |            15                   0.553050                      2            |
 |            16                   0.553930                     12            |
 |            17                   0.561876                      6            |
 |            18                   0.587560                      6            |
 |            19                   0.591020                      6            |
 |            20                   0.593640                      6            |
 |            21                   0.604663                      6            |
 |            22                   0.606639                     12            |
 |            23                   0.614697                      6            |
 |            24                   0.640685                      6            |
 |            25                   0.656406                      6            |
 |            26                   0.658766                      6            |
 |            27                   0.663660                      2            |
 |            28                   0.673538                     12            |
 |            29                   0.691977                      6            |
 |            30                   0.692681                      6            |
 |            31                   0.712989                      6            |
 |            32                   0.750843                     12            |
 |            33                   0.757367                      6            |
 |            34                   0.759414                      6            |
 |            35                   0.774270                      2            |
 |            36                   0.776612                     12            |
 +----------------------------------------------------------------------------+
 | The b-vectors are chosen automatically                                     |
 | The following shells are used:   1,  3                                     |
 +----------------------------------------------------------------------------+
 |                        Shell   # Nearest-Neighbours                        |
 |                        -----   --------------------                        |
 |                          1               2                                 |
 |                          3               6                                 |
 +----------------------------------------------------------------------------+
 | Completeness relation is fully satisfied [Eq. (B1), PRB 56, 12847 (1997)]  |
 +----------------------------------------------------------------------------+
 |                  b_k Vectors (Ang^-1) and Weights (Ang^2)                  |
 |                  ----------------------------------------                  |
 |            No.         b_k(x)      b_k(y)      b_k(z)        w_b           |
 |            ---        --------------------------------     --------        |
 |             1         0.109805    0.000000    0.013317    39.575298        |
 |             2        -0.109805    0.000000   -0.013317    39.575298        |
 |             3         0.054253   -0.253919   -0.141095     3.877469        |
 |             4        -0.054253    0.253919    0.141095     3.877469        |
 |             5         0.054253    0.253919   -0.141095     3.877469        |
 |             6        -0.054253   -0.253919    0.141095     3.877469        |
 |             7         0.001300    0.000000    0.295507     3.877469        |
 |             8        -0.001300    0.000000   -0.295507     3.877469        |
 +----------------------------------------------------------------------------+
 |                           b_k Directions (Ang^-1)                          |
 |                           -----------------------                          |
 |            No.           x           y           z                         |
 |            ---        --------------------------------                     |
 |             1         0.109805    0.000000    0.013317                     |
 |             2         0.054253   -0.253919   -0.141095                     |
 |             3         0.054253    0.253919   -0.141095                     |
 |             4         0.001300    0.000000    0.295507                     |
 +----------------------------------------------------------------------------+
  
 Time to get kmesh              0.656 (sec)
 *============================================================================*
 |                              MEMORY ESTIMATE                               |
 |         Maximum RAM allocated during each phase of the calculation         |
 *============================================================================*
 |                        Disentanglement           15.18 Mb                  |
 |                            Wannierise:           16.75 Mb                  |
 |                          plot_wannier:           16.75 Mb                  |
 *----------------------------------------------------------------------------*
  
 Reading restart information from file wannier90.chk :
 written on 26Jul2025 at 16:22:04 ... done

 Restarting Wannier90 from plotting routines ...

 *---------------------------------------------------------------------------*
 |                               PLOTTING                                    |
 *---------------------------------------------------------------------------*

 !!!! Kpoint grid does not include Gamma.  Interpolation may be incorrect. !!!!

 Calculating interpolated band-structure

 Time to calculate interpolated band structure       1.635 (sec)

 Time for plotting              2.050 (sec)
 Total Execution Time           2.762 (sec)

 *===========================================================================*
 |                             TIMING INFORMATION                            |
 *===========================================================================*
 |    Tag                                                Ncalls      Time (s)|
 |---------------------------------------------------------------------------|
 |kmesh: get                                        :         1         0.656|
 |plot: main                                        :         1         2.050|
 *---------------------------------------------------------------------------*

 All done: wannier90 exiting
----------------------------------------------------------------*
 |  Plotting Hamiltonian in WF basis          :                 T             |
 *----------------------------------------------------------------------------*
 Time to read parameters        0.043 (sec)

 *---------------------------------- K-MESH ----------------------------------*
 +----------------------------------------------------------------------------+
 |                    Distance to Nearest-Neighbour Shells                    |
 |                    ------------------------------------                    |
 |          Shell             Distance (Ang^-1)          Multiplicity         |
 |          -----             -----------------          ------------         |
 |             1                   0.110610                      2            |
 |             2                   0.221220                      2            |
 |             3                   0.295510                      6            |
 |             4                   0.302331                      6            |
 |             5                   0.328203                      6            |
 |             6                   0.331830                      2            |
 |             7                   0.346340                      6            |
 |             8                   0.390611                      6            |
 |             9                   0.415894                      6            |
 |            10                   0.442440                      2            |
 |            11                   0.471069                      6            |
 |            12                   0.500454                      6            |
 |            13                   0.507839                      6            |
 |            14                   0.519745                     12            |
 |            15                   0.553050                      2            |
 |            16                   0.553930                     12            |
 |            17                   0.561876                      6            |
 |            18                   0.587560                      6            |
 |            19                   0.591020                      6            |
 |            20                   0.593640                      6            |
 |            21                   0.604663                      6            |
 |            22                   0.606639                     12            |
 |            23                   0.614697                      6            |
 |            24                   0.640685                      6            |
 |            25                   0.656406                      6            |
 |            26                   0.658766                      6            |
 |            27                   0.663660                      2            |
 |            28                   0.673538                     12            |
 |            29                   0.691977                      6            |
 |            30                   0.692681                      6            |
 |            31                   0.712989                      6            |
 |            32                   0.750843                     12            |
 |            33                   0.757367                      6            |
 |            34                   0.759414                      6            |
 |            35                   0.774270                      2            |
 |            36                   0.776612                     12            |
 +----------------------------------------------------------------------------+
 | The b-vectors are chosen automatically                                     |
 | The following shells are used:   1,  3                                     |
 +----------------------------------------------------------------------------+
 |                        Shell   # Nearest-Neighbours                        |
 |                        -----   --------------------                        |
 |                          1               2                                 |
 |                          3               6                                 |
 +----------------------------------------------------------------------------+
 | Completeness relation is fully satisfied [Eq. (B1), PRB 56, 12847 (1997)]  |
 +----------------------------------------------------------------------------+
 |                  b_k Vectors (Ang^-1) and Weights (Ang^2)                  |
 |                  ----------------------------------------                  |
 |            No.         b_k(x)      b_k(y)      b_k(z)        w_b           |
 |            ---        --------------------------------     --------        |
 |             1         0.109805    0.000000    0.013317    39.575298        |
 |             2        -0.109805    0.000000   -0.013317    39.575298        |
 |             3         0.054253   -0.253919   -0.141095     3.877469        |
 |             4        -0.054253    0.253919    0.141095     3.877469        |
 |             5         0.054253    0.253919   -0.141095     3.877469        |
 |             6        -0.054253   -0.253919    0.141095     3.877469        |
 |             7         0.001300    0.000000    0.295507     3.877469        |
 |             8        -0.001300    0.000000   -0.295507     3.877469        |
 +----------------------------------------------------------------------------+
 |                           b_k Directions (Ang^-1)                          |
 |                           -----------------------                          |
 |            No.           x           y           z                         |
 |            ---        --------------------------------                     |
 |             1         0.109805    0.000000    0.013317                     |
 |             2         0.054253   -0.253919   -0.141095                     |
 |             3         0.054253    0.253919   -0.141095                     |
 |             4         0.001300    0.000000    0.295507                     |
 +----------------------------------------------------------------------------+
  
 Time to get kmesh              0.655 (sec)
 *============================================================================*
 |                              MEMORY ESTIMATE                               |
 |         Maximum RAM allocated during each phase of the calculation         |
 *============================================================================*
 |                        Disentanglement           15.18 Mb                  |
 |                            Wannierise:           16.75 Mb                  |
 |                          plot_wannier:           16.75 Mb                  |
 *----------------------------------------------------------------------------*
  
 Reading restart information from file wannier90.chk :
 written on 26Jul2025 at 16:22:04 ... done

 Restarting Wannier90 from plotting routines ...

 *---------------------------------------------------------------------------*
 |                               PLOTTING                                    |
 *---------------------------------------------------------------------------*

 !!!! Kpoint grid does not include Gamma.  Interpolation may be incorrect. !!!!

 Calculating interpolated band-structure

 Time to calculate interpolated band structure       1.625 (sec)

 Time for plotting              1.938 (sec)
 Total Execution Time           2.650 (sec)

 *===========================================================================*
 |                             TIMING INFORMATION                            |
 *===========================================================================*
 |    Tag                                                Ncalls      Time (s)|
 |---------------------------------------------------------------------------|
 |kmesh: get                                        :         1         0.655|
 |plot: main                                        :         1         1.938|
 *---------------------------------------------------------------------------*

 All done: wannier90 exiting
----------------------------------------------------------------*
 |  Plotting Hamiltonian in WF basis          :                 T             |
 *----------------------------------------------------------------------------*
 Time to read parameters        0.048 (sec)

 *---------------------------------- K-MESH ----------------------------------*
 +----------------------------------------------------------------------------+
 |                    Distance to Nearest-Neighbour Shells                    |
 |                    ------------------------------------                    |
 |          Shell             Distance (Ang^-1)          Multiplicity         |
 |          -----             -----------------          ------------         |
 |             1                   0.110610                      2            |
 |             2                   0.221220                      2            |
 |             3                   0.295510                      6            |
 |             4                   0.302331                      6            |
 |             5                   0.328203                      6            |
 |             6                   0.331830                      2            |
 |             7                   0.346340                      6            |
 |             8                   0.390611                      6            |
 |             9                   0.415894                      6            |
 |            10                   0.442440                      2            |
 |            11                   0.471069                      6            |
 |            12                   0.500454                      6            |
 |            13                   0.507839                      6            |
 |            14                   0.519745                     12            |
 |            15                   0.553050                      2            |
 |            16                   0.553930                     12            |
 |            17                   0.561876                      6            |
 |            18                   0.587560                      6            |
 |            19                   0.591020                      6            |
 |            20                   0.593640                      6            |
 |            21                   0.604663                      6            |
 |            22                   0.606639                     12            |
 |            23                   0.614697                      6            |
 |            24                   0.640685                      6            |
 |            25                   0.656406                      6            |
 |            26                   0.658766                      6            |
 |            27                   0.663660                      2            |
 |            28                   0.673538                     12            |
 |            29                   0.691977                      6            |
 |            30                   0.692681                      6            |
 |            31                   0.712989                      6            |
 |            32                   0.750843                     12            |
 |            33                   0.757367                      6            |
 |            34                   0.759414                      6            |
 |            35                   0.774270                      2            |
 |            36                   0.776612                     12            |
 +----------------------------------------------------------------------------+
 | The b-vectors are chosen automatically                                     |
 | The following shells are used:   1,  3                                     |
 +----------------------------------------------------------------------------+
 |                        Shell   # Nearest-Neighbours                        |
 |                        -----   --------------------                        |
 |                          1               2                                 |
 |                          3               6                                 |
 +----------------------------------------------------------------------------+
 | Completeness relation is fully satisfied [Eq. (B1), PRB 56, 12847 (1997)]  |
 +----------------------------------------------------------------------------+
 |                  b_k Vectors (Ang^-1) and Weights (Ang^2)                  |
 |                  ----------------------------------------                  |
 |            No.         b_k(x)      b_k(y)      b_k(z)        w_b           |
 |            ---        --------------------------------     --------        |
 |             1         0.109805    0.000000    0.013317    39.575298        |
 |             2        -0.109805    0.000000   -0.013317    39.575298        |
 |             3         0.054253   -0.253919   -0.141095     3.877469        |
 |             4        -0.054253    0.253919    0.141095     3.877469        |
 |             5         0.054253    0.253919   -0.141095     3.877469        |
 |             6        -0.054253   -0.253919    0.141095     3.877469        |
 |             7         0.001300    0.000000    0.295507     3.877469        |
 |             8        -0.001300    0.000000   -0.295507     3.877469        |
 +----------------------------------------------------------------------------+
 |                           b_k Directions (Ang^-1)                          |
 |                           -----------------------                          |
 |            No.           x           y           z                         |
 |            ---        --------------------------------                     |
 |             1         0.109805    0.000000    0.013317                     |
 |             2         0.054253   -0.253919   -0.141095                     |
 |             3         0.054253    0.253919   -0.141095                     |
 |             4         0.001300    0.000000    0.295507                     |
 +----------------------------------------------------------------------------+
  
 Time to get kmesh              0.664 (sec)
 *============================================================================*
 |                              MEMORY ESTIMATE                               |
 |         Maximum RAM allocated during each phase of the calculation         |
 *============================================================================*
 |                        Disentanglement           15.18 Mb                  |
 |                            Wannierise:           16.75 Mb                  |
 |                          plot_wannier:           16.75 Mb                  |
 *----------------------------------------------------------------------------*
  
 Reading restart information from file wannier90.chk :
 written on 26Jul2025 at 16:22:04 ... done

 Restarting Wannier90 from plotting routines ...

 *---------------------------------------------------------------------------*
 |                               PLOTTING                                    |
 *---------------------------------------------------------------------------*

 !!!! Kpoint grid does not include Gamma.  Interpolation may be incorrect. !!!!

 Calculating interpolated band-structure

 Time to calculate interpolated band structure       1.643 (sec)

 Time for plotting              1.898 (sec)
 Total Execution Time           2.623 (sec)

 *===========================================================================*
 |                             TIMING INFORMATION                            |
 *===========================================================================*
 |    Tag                                                Ncalls      Time (s)|
 |---------------------------------------------------------------------------|
 |kmesh: get                                        :         1         0.664|
 |plot: main                                        :         1         1.898|
 *---------------------------------------------------------------------------*

 All done: wannier90 exiting
----------------------------------------------------------------*
 |  Plotting Hamiltonian in WF basis          :                 T             |
 *----------------------------------------------------------------------------*
 Time to read parameters        0.044 (sec)

 *---------------------------------- K-MESH ----------------------------------*
 +----------------------------------------------------------------------------+
 |                    Distance to Nearest-Neighbour Shells                    |
 |                    ------------------------------------                    |
 |          Shell             Distance (Ang^-1)          Multiplicity         |
[...]
 |             2        -0.109805    0.000000   -0.013317    39.575298        |
 |             3         0.054253   -0.253919   -0.141095     3.877469        |
 |             4        -0.054253    0.253919    0.141095     3.877469        |
 |             5         0.054253    0.253919   -0.141095     3.877469        |
 |             6        -0.054253   -0.253919    0.141095     3.877469        |
 |             7         0.001300    0.000000    0.295507     3.877469        |
 |             8        -0.001300    0.000000   -0.295507     3.877469        |
 +----------------------------------------------------------------------------+
 |                           b_k Directions (Ang^-1)                          |
 |                           -----------------------                        |    |            No.           x           y           z                         |
 |            ---        --------------------------------                     |
 |             1         0.109805    0.000000    0.013317                     |
 |             2         0.054253   -0.253919   -0.141095                     |
 |             3         0.054253    0.253919   -0.141095                     |
 |             4         0.001300    0.000000    0.295507                     |
 +----------------------------------------------------------------------------+
  
 Time to get kmesh              0.661 (sec)
 *============================================================================*
 |                              MEMORY ESTIMATE                               |
 |         Maximum RAM allocated during each phase of the calculation         |
 *============================================================================*
 |                        Disentanglement           15.18 Mb                  |
 |                            Wannierise:           16.75 Mb                  |
 |                          plot_wannier:           16.75 Mb                  |
 *----------------------------------------------------------------------------*
  
 Reading restart information from file wannier90.chk :
 written on 26Jul2025 at 16:22:04 ... done

 Restarting Wannier90 from plotting routines ...

 *---------------------------------------------------------------------------*
 |                               PLOTTING                                    |
 *---------------------------------------------------------------------------*

 !!!! Kpoint grid does not include Gamma.  Interpolation may be incorrect. !!!!

 Calculating interpolated band-structure

 Time to calculate interpolated band structure       1.670 (sec)

 Time for plotting              2.101 (sec)
 Total Execution Time           2.821 (sec)

 *===========================================================================*
 |                             TIMING INFORMATION                            |
 *===========================================================================*
 |    Tag                                                Ncalls      Time (s)|
 |---------------------------------------------------------------------------|
 |kmesh: get                                        :         1         0.661|
 |plot: main                                        :         1         2.101|
 *---------------------------------------------------------------------------*

 All done: wannier90 exiting
      1               2                                 |
 |                          3               6                                 |
 +----------------------------------------------------------------------------+
 | Completeness relation is fully satisfied [Eq. (B1), PRB 56, 12847 (1997)]  |
 +----------------------------------------------------------------------------+
 |                  b_k Vectors (Ang^-1) and Weights (Ang^2)                  |
 |                  ----------------------------------------                  |
 |            No.         b_k(x)      b_k(y)      b_k(z)        w_b           |
 |            ---        --------------------------------     --------        |
 |             1         0.109805    0.000000    0.013317    39.575298        |
 |             2        -0.109805    0.000000   -0.013317    39.575298        |
 |             3         0.054253   -0.253919   -0.141095     3.877469        |
 |             4        -0.054253    0.253919    0.141095     3.877469        |
 |             5         0.054253    0.253919   -0.141095     3.877469        |
 |             6        -0.054253   -0.253919    0.141095     3.877469        |
 |             7         0.001300    0.000000    0.295507     3.877469        |
 |             8        -0.001300    0.000000   -0.295507     3.877469        |
 +----------------------------------------------------------------------------+
 |                           b_k Directions (Ang^-1)                          |
 |                           -----------------------                          |
 |            No.           x           y           z                         |
 |            ---        --------------------------------                     |
 |             1         0.109805    0.000000    0.013317                     |
 |             2         0.054253   -0.253919   -0.141095                     |
 |             3         0.054253    0.253919   -0.141095                     |
 |             4         0.001300    0.000000    0.295507                     |
 +----------------------------------------------------------------------------+
  
 Time to get kmesh              0.660 (sec)
 *============================================================================*
 |                              MEMORY ESTIMATE                               |
 |         Maximum RAM allocated during each phase of the calculation         |
 *============================================================================*
 |                        Disentanglement           15.18 Mb                  |
 |                            Wannierise:           16.75 Mb                  |
 |                          plot_wannier:           16.75 Mb                  |
 *----------------------------------------------------------------------------*
  
 Reading restart information from file wannier90.chk :
 written on 26Jul2025 at 16:22:04 ... done

 Restarting Wannier90 from plotting routines ...

 *---------------------------------------------------------------------------*
 |                               PLOTTING                                    |
 *---------------------------------------------------------------------------*

 !!!! Kpoint grid does not include Gamma.  Interpolation may be incorrect. !!!!

 Calculating interpolated band-structure

 Time to calculate interpolated band structure       1.649 (sec)

 Time for plotting              2.076 (sec)
 Total Execution Time           2.794 (sec)

 *===========================================================================*
 |                             TIMING INFORMATION                            |
 *===========================================================================*
 |    Tag                                                Ncalls      Time (s)|
 |---------------------------------------------------------------------------|
 |kmesh: get                                        :         1         0.660|
 |plot: main                                        :         1         2.076|
 *---------------------------------------------------------------------------*

 All done: wannier90 exiting
      1               2                                 |
 |                          3               6                                 |
 +----------------------------------------------------------------------------+
 | Completeness relation is fully satisfied [Eq. (B1), PRB 56, 12847 (1997)]  |
 +----------------------------------------------------------------------------+
 |                  b_k Vectors (Ang^-1) and Weights (Ang^2)                  |
 |                  ----------------------------------------                  |
 |            No.         b_k(x)      b_k(y)      b_k(z)        w_b           |
 |            ---        --------------------------------     --------        |
 |             1         0.109805    0.000000    0.013317    39.575298        |
 |             2        -0.109805    0.000000   -0.013317    39.575298        |
 |             3         0.054253   -0.253919   -0.141095     3.877469        |
 |             4        -0.054253    0.253919    0.141095     3.877469        |
 |             5         0.054253    0.253919   -0.141095     3.877469        |
 |             6        -0.054253   -0.253919    0.141095     3.877469        |
 |             7         0.001300    0.000000    0.295507     3.877469        |
 |             8        -0.001300    0.000000   -0.295507     3.877469        |
 +----------------------------------------------------------------------------+
 |                           b_k Directions (Ang^-1)                          |
 |                           -----------------------                        |    |            No.           x           y           z                         |
 |            ---        --------------------------------                     |
 |             1         0.109805    0.000000    0.013317                     |
 |             2         0.054253   -0.253919   -0.141095                     |
 |             3         0.054253    0.253919   -0.141095                     |
 |             4         0.001300    0.000000    0.295507                     |
 +----------------------------------------------------------------------------+
  
 Time to get kmesh              0.660 (sec)
 *============================================================================*
 |                              MEMORY ESTIMATE                               |
 |         Maximum RAM allocated during each phase of the calculation         |
 *============================================================================*
 |                        Disentanglement           15.18 Mb                  |
 |                            Wannierise:           16.75 Mb                  |
 |                          plot_wannier:           16.75 Mb                  |
 *----------------------------------------------------------------------------*
  
 Reading restart information from file wannier90.chk :
 written on 26Jul2025 at 16:22:04 ... done

 Restarting Wannier90 from plotting routines ...

 *---------------------------------------------------------------------------*
 |                               PLOTTING                                    |
 *---------------------------------------------------------------------------*

 !!!! Kpoint grid does not include Gamma.  Interpolation may be incorrect. !!!!

 Calculating interpolated band-structure

 Time to calculate interpolated band structure       1.677 (sec)

 Time for plotting              2.095 (sec)
 Total Execution Time           2.813 (sec)

 *===========================================================================*
 |                             TIMING INFORMATION                            |
 *===========================================================================*
 |    Tag                                                Ncalls      Time (s)|
 |---------------------------------------------------------------------------|
 |kmesh: get                                        :         1         0.660|
 |plot: main                                        :         1         2.095|
 *---------------------------------------------------------------------------*

 All done: wannier90 exiting
      1               2                                 |
 |                          3               6                                 |
 +----------------------------------------------------------------------------+
 | Completeness relation is fully satisfied [Eq. (B1), PRB 56, 12847 (1997)]  |
 +----------------------------------------------------------------------------+
 |                  b_k Vectors (Ang^-1) and Weights (Ang^2)                  |
 |                  ----------------------------------------                  |
 |            No.         b_k(x)      b_k(y)      b_k(z)        w_b           |
 |            ---        --------------------------------     --------        |
 |             1         0.109805    0.000000    0.013317    39.575298        |
 |             2        -0.109805    0.000000   -0.013317    39.575298        |
 |             3         0.054253   -0.253919   -0.141095     3.877469        |
 |             4        -0.054253    0.253919    0.141095     3.877469        |
 |             5         0.054253    0.253919   -0.141095     3.877469        |
 |             6        -0.054253   -0.253919    0.141095     3.877469        |
 |             7         0.001300    0.000000    0.295507     3.877469        |
 |             8        -0.001300    0.000000   -0.295507     3.877469        |
 +----------------------------------------------------------------------------+
 |                           b_k Directions (Ang^-1)                          |
 |                           -----------------------                        |    |            No.           x           y           z                         |
 |            ---        --------------------------------                     |
 |             1         0.109805    0.000000    0.013317                     |
 |             2         0.054253   -0.253919   -0.141095                     |
 |             3         0.054253    0.253919   -0.141095                     |
 |             4         0.001300    0.000000    0.295507                     |
 +----------------------------------------------------------------------------+
  
 Time to get kmesh              0.660 (sec)
 *============================================================================*
 |                              MEMORY ESTIMATE                               |
 |         Maximum RAM allocated during each phase of the calculation         |
 *============================================================================*
 |                        Disentanglement           15.18 Mb                  |
 |                            Wannierise:           16.75 Mb                  |
 |                          plot_wannier:           16.75 Mb                  |
 *----------------------------------------------------------------------------*
  
 Reading restart information from file wannier90.chk :
 written on 26Jul2025 at 16:22:04 ... done

 Restarting Wannier90 from plotting routines ...

 *---------------------------------------------------------------------------*
 |                               PLOTTING                                    |
 *---------------------------------------------------------------------------*

 !!!! Kpoint grid does not include Gamma.  Interpolation may be incorrect. !!!!

 Calculating interpolated band-structure

 Time to calculate interpolated band structure       1.658 (sec)

 Time for plotting              2.075 (sec)
 Total Execution Time           2.794 (sec)

 *===========================================================================*
 |                             TIMING INFORMATION                            |
 *===========================================================================*
 |    Tag                                                Ncalls      Time (s)|
 |---------------------------------------------------------------------------|
 |kmesh: get                                        :         1         0.660|
 |plot: main                                        :         1         2.075|
 *---------------------------------------------------------------------------*

 All done: wannier90 exiting
      1               2                                 |
 |                          3               6                                 |
 +----------------------------------------------------------------------------+
 | Completeness relation is fully satisfied [Eq. (B1), PRB 56, 12847 (1997)]  |
 +----------------------------------------------------------------------------+
 |                  b_k Vectors (Ang^-1) and Weights (Ang^2)                  |
 |                  ----------------------------------------                  |
 |            No.         b_k(x)      b_k(y)      b_k(z)        w_b           |
 |            ---        --------------------------------     --------        |
 |             1         0.109805    0.000000    0.013317    39.575298        |
 |             2        -0.109805    0.000000   -0.013317    39.575298        |
 |             3         0.054253   -0.253919   -0.141095     3.877469        |
 |             4        -0.054253    0.253919    0.141095     3.877469        |
 |             5         0.054253    0.253919   -0.141095     3.877469        |
 |             6        -0.054253   -0.253919    0.141095     3.877469        |
 |             7         0.001300    0.000000    0.295507     3.877469        |
 |             8        -0.001300    0.000000   -0.295507     3.877469        |
 +----------------------------------------------------------------------------+
 |                           b_k Directions (Ang^-1)                          |
 |                           -----------------------                          |
 |            No.           x           y           z                         |
 |            ---        --------------------------------                     |
 |             1         0.109805    0.000000    0.013317                     |
 |             2         0.054253   -0.253919   -0.141095                     |
 |             3         0.054253    0.253919   -0.141095                     |
 |             4         0.001300    0.000000    0.295507                     |
 +----------------------------------------------------------------------------+
  
 Time to get kmesh              0.660 (sec)
 *============================================================================*
 |                              MEMORY ESTIMATE                               |
 |         Maximum RAM allocated during each phase of the calculation         |
 *============================================================================*
 |                        Disentanglement           15.18 Mb                  |
 |                            Wannierise:           16.75 Mb                  |
 |                          plot_wannier:           16.75 Mb                  |
 *----------------------------------------------------------------------------*
  
 Reading restart information from file wannier90.chk :
 written on 26Jul2025 at 16:22:04 ... done

 Restarting Wannier90 from plotting routines ...

 *---------------------------------------------------------------------------*
 |                               PLOTTING                                    |
 *---------------------------------------------------------------------------*

 !!!! Kpoint grid does not include Gamma.  Interpolation may be incorrect. !!!!

 Calculating interpolated band-structure

 Time to calculate interpolated band structure       1.662 (sec)

 Time for plotting              2.091 (sec)
 Total Execution Time           2.809 (sec)

 *===========================================================================*
 |                             TIMING INFORMATION                            |
 *===========================================================================*
 |    Tag                                                Ncalls      Time (s)|
 |---------------------------------------------------------------------------|
 |kmesh: get                                        :         1         0.660|
 |plot: main                                        :         1         2.091|
 *---------------------------------------------------------------------------*

 All done: wannier90 exiting
