
             +---------------------------------------------------+
             |                                                   |
             |                   WANNIER90                       |
             |                                                   |
             +---------------------------------------------------+
             |                                                   |
             |        Welcome to the Maximally-Localized         |
             |        Generalized Wannier Functions code         |
             |            http://www.wannier.org                 |
             |                                                   |
             |                                                   |
             |  Wannier90 Developer Group:                       |
             |    Giovanni Pizzi    (EPFL)                       |
             |    Valerio Vitale    (Cambridge)                  |
             |    David Vanderbilt  (Rutgers University)         |
             |    Nicola Marzari    (EPFL)                       |
             |    Ivo Souza         (Universidad del Pais Vasco) |
             |    Arash A. Mostofi  (Imperial College London)    |
             |    Jonathan R. Yates (University of Oxford)       |
             |                                                   |
             |  For the full list of Wannier90 3.x authors,      |
             |  please check the code documentation and the      |
             |  README on the GitHub page of the code            |
             |                                                   |
             |                                                   |
             |  Please cite                                      |
             |                                                   |
             |  [ref] "Wannier90 as a community code:            |
             |        new features and applications",            |
             |        G. Pizzi et al., J. Phys. Cond. Matt. 32,  |
             |        165902 (2020).                             |
             |        http://doi.org/10.1088/1361-648X/ab51ff    |
             |                                                   |
             |  in any publications arising from the use of      |
             |  this code. For the method please cite            |
             |                                                   |
             |  [ref] "Maximally Localized Generalised Wannier   |
             |         Functions for Composite Energy Bands"     |
             |         N. Marzari and D. Vanderbilt              |
             |         Phys. Rev. B 56 12847 (1997)              |
             |                                                   |
             |  [ref] "Maximally Localized Wannier Functions     |
             |         for Entangled Energy Bands"               |
             |         I. Souza, N. Marzari and D. Vanderbilt    |
             |         Phys. Rev. B 65 035109 (2001)             |
             |                                                   |
             |                                                   |
             | Copyright (c) 1996-2020                           |
             |        The Wannier90 Developer Group and          |
             |        individual contributors                    |
             |                                                   |
             |      Release: 3.1.0        5th March    2020      |
             |                                                   |
             | This program is free software; you can            |
             | redistribute it and/or modify it under the terms  |
             | of the GNU General Public License as published by |
             | the Free Software Foundation; either version 2 of |
             | the License, or (at your option) any later version|
             |                                                   |
             | This program is distributed in the hope that it   |
             | will be useful, but WITHOUT ANY WARRANTY; without |
             | even the implied warranty of MERCHANTABILITY or   |
             | FITNESS FOR A PARTICULAR PURPOSE. See the GNU     |
             | General Public License for more details.          |
             |                                                   |
             | You should have received a copy of the GNU General|
             | Public License along with this program; if not,   |
             | write to the Free Software Foundation, Inc.,      |
             | 675 Mass Ave, Cambridge, MA 02139, USA.           |
             |                                                   |
             +---------------------------------------------------+
             |    Execution started on 13Jul2025 at 18:11:11     |
             +---------------------------------------------------+
 
 ******************************************************************************
 * -> Using CODATA 2006 constant values                                       *
 *    (http://physics.nist.gov/cuu/Constants/index.html)                      *
 * -> Using Bohr value from CODATA                                            *
 ******************************************************************************
 

 Running in serial (with serial executable)

                                    ------
                                    SYSTEM
                                    ------

                              Lattice Vectors (Ang)
                    a_1     4.083159  -2.260377  -0.001130
                    a_2     4.083159   2.260377  -0.001130
                    a_3     2.832874   0.000000   3.708951

                   Unit Cell Volume:      68.47783  (Ang^3)

                        Reciprocal-Space Vectors (Ang^-1)
                    b_1     0.769240  -1.389854  -0.587541
                    b_2     0.769240   1.389854  -0.587541
                    b_3     0.000469   0.000000   1.693702
  
 *----------------------------------------------------------------------------*
 |   Site       Fractional Coordinate          Cartesian Coordinate (Ang)     |
 +----------------------------------------------------------------------------+
 | Bi   1   0.76308   0.26308   0.26308   |    4.93530  -1.13019   0.97461    |
 | Bi   2   0.23692   0.73692   0.73692   |    6.06389   1.13019   2.73208    |
 *----------------------------------------------------------------------------*
                                ------------
                                K-POINT GRID
                                ------------
  
             Grid size =  8 x  8 x  8      Total points =  512
  
  
 *---------------------------------- MAIN ------------------------------------*
 |  Number of Wannier Functions               :                16             |
 |  Number of Objective Wannier Functions     :                16             |
 |  Number of input Bloch states              :                26             |
 |  Output verbosity (1=low, 5=high)          :                 1             |
 |  Timing Level (1=low, 5=high)              :                 1             |
 |  Optimisation (0=memory, 3=speed)          :                 3             |
 |  Length Unit                               :               Ang             |
 |  Post-processing setup (write *.nnkp)      :                 F             |
 |  Using Gamma-only branch of algorithms     :                 F             |
 *----------------------------------------------------------------------------*
 *------------------------------- WANNIERISE ---------------------------------*
 |  Total number of iterations                :                 0             |
 |  Number of CG steps before reset           :                 5             |
 |  Trial step length for line search         :             2.000             |
 |  Convergence tolerence                     :         0.100E-09             |
 |  Convergence window                        :                -1             |
 |  Iterations between writing output         :                 1             |
 |  Iterations between backing up to disk     :               100             |
 |  Write r^2_nm to file                      :                 F             |
 |  Write xyz WF centres to file              :                 F             |
 |  Write on-site energies <0n|H|0n> to file  :                 F             |
 |  Use guiding centre to control phases      :                 F             |
 |  Use phases for initial projections        :                 F             |
 *----------------------------------------------------------------------------*
 *------------------------------- DISENTANGLE --------------------------------*
 |  Using band disentanglement                :                 T             |
 |  Total number of iterations                :                 0             |
 |  Mixing ratio                              :             0.500             |
 |  Convergence tolerence                     :         1.000E-10             |
 |  Convergence window                        :                 3             |
 *----------------------------------------------------------------------------*
 Time to read parameters        0.099 (sec)

 *---------------------------------- K-MESH ----------------------------------*
 +----------------------------------------------------------------------------+
 |                    Distance to Nearest-Neighbour Shells                    |
 |                    ------------------------------------                    |
 |          Shell             Distance (Ang^-1)          Multiplicity         |
 |          -----             -----------------          ------------         |
 |             1                   0.202998                      2            |
 |             2                   0.211713                      6            |
 |             3                   0.241988                      6            |
 |             4                   0.336902                      6            |
 |             5                   0.347463                      6            |
 |             6                   0.393333                      6            |
 |             7                   0.402417                     12            |
 |             8                   0.405996                      2            |
 |             9                   0.406882                      6            |
 |            10                   0.423426                      6            |
 |            11                   0.483977                      6            |
 |            12                   0.514393                      6            |
 |            13                   0.524826                      6            |
 |            14                   0.534382                     12            |
 |            15                   0.535055                     12            |
 |            16                   0.547741                     12            |
 |            17                   0.577304                      6            |
 |            18                   0.595789                     12            |
 |            19                   0.601824                      6            |
 |            20                   0.608995                      2            |
 |            21                   0.620750                      6            |
 |            22                   0.629422                     12            |
 |            23                   0.635138                     12            |
 |            24                   0.673803                      6            |
 |            25                   0.694927                      6            |
 |            26                   0.701146                     12            |
 |            27                   0.705771                      6            |
 |            28                   0.711380                     12            |
 |            29                   0.723969                     12            |
 |            30                   0.725965                     12            |
 |            31                   0.726461                     12            |
 |            32                   0.735854                     12            |
 |            33                   0.758117                     12            |
 |            34                   0.770886                      6            |
 |            35                   0.772286                     12            |
 |            36                   0.786666                      6            |
 +----------------------------------------------------------------------------+
 | The b-vectors are chosen automatically                                     |
 | The following shells are used:   1,  2                                     |
 +----------------------------------------------------------------------------+
 |                        Shell   # Nearest-Neighbours                        |
 |                        -----   --------------------                        |
 |                          1               2                                 |
 |                          2               6                                 |
 +----------------------------------------------------------------------------+
 | Completeness relation is fully satisfied [Eq. (B1), PRB 56, 12847 (1997)]  |
 +----------------------------------------------------------------------------+
 |                  b_k Vectors (Ang^-1) and Weights (Ang^2)                  |
 |                  ----------------------------------------                  |
 |            No.         b_k(x)      b_k(y)      b_k(z)        w_b           |
 |            ---        --------------------------------     --------        |
 |             1         0.192369    0.000000    0.064828     9.372524        |
 |             2        -0.192369    0.000000   -0.064828     9.372524        |
 |             3         0.096155   -0.173732   -0.073443     8.282890        |
 |             4        -0.096155    0.173732    0.073443     8.282890        |
 |             5         0.096155    0.173732   -0.073443     8.282890        |
 |             6        -0.096155   -0.173732    0.073443     8.282890        |
 |             7         0.000059    0.000000    0.211713     8.282890        |
 |             8        -0.000059    0.000000   -0.211713     8.282890        |
 +----------------------------------------------------------------------------+
 |                           b_k Directions (Ang^-1)                          |
 |                           -----------------------                          |
 |            No.           x           y           z                         |
 |            ---        --------------------------------                     |
 |             1         0.192369    0.000000    0.064828                     |
 |             2         0.096155   -0.173732   -0.073443                     |
 |             3         0.096155    0.173732   -0.073443                     |
 |             4         0.000059    0.000000    0.211713                     |
 +----------------------------------------------------------------------------+
  
 Time to get kmesh              1.214 (sec)
 *============================================================================*
 |                              MEMORY ESTIMATE                               |
 |         Maximum RAM allocated during each phase of the calculation         |
 *============================================================================*
 |                        Disentanglement           67.28 Mb                  |
 |                            Wannierise:           46.08 Mb                  |
 |                          plot_wannier:           46.08 Mb                  |
 *----------------------------------------------------------------------------*
  
 Starting a new Wannier90 calculation ...


 Reading overlaps from wannier90.mmn    : File generated by VASP: unknown system

 Reading projections from wannier90.amn : File generated by VASP: unknown system

 Time to read overlaps          3.122 (sec)

 *------------------------------- DISENTANGLE --------------------------------*
 +----------------------------------------------------------------------------+
 |                              Energy  Windows                               |
 |                              ---------------                               |
 |                   Outer:  -13.00000  to   13.00000  (eV)                   |
 |                   Inner:  -13.00000  to    4.00000  (eV)                   |
 +----------------------------------------------------------------------------+
   Number of target bands to extract:   16

                   Unitarised projection of Wannier functions                  
                   ------------------------------------------                  
   A_mn = <psi_m|g_n> --> S = A.A^+ --> U = S^-1/2.A
   In dis_project... done
   Using an inner window (linner = T)
   In dis_proj_froz... done

                   Extraction of optimally-connected subspace                  
                   ------------------------------------------                  
 +---------------------------------------------------------------------+<-- DIS
 |  Iter     Omega_I(i-1)      Omega_I(i)      Delta (frac.)    Time   |<-- DIS
 +---------------------------------------------------------------------+<-- DIS

     <<< Warning: Maximum number of disentanglement iterations reached >>>
          <<< Disentanglement convergence criteria not satisfied >>>

        Final Omega_I     0.00000000 (Ang^2)

 +----------------------------------------------------------------------------+

 Time to disentangle bands      0.366 (sec)

 Writing checkpoint file wannier90.chk... done


 *------------------------------- WANNIERISE ---------------------------------*
 +--------------------------------------------------------------------+<-- CONV
 | Iter  Delta Spread     RMS Gradient      Spread (Ang^2)      Time  |<-- CONV
 +--------------------------------------------------------------------+<-- CONV

 ------------------------------------------------------------------------------
 Initial State
  WF centre and spread    1  (  0.853663,  1.130188,  0.976248 )     1.51169556
  WF centre and spread    2  (  0.853663,  1.130188,  0.976248 )     1.51169556
  WF centre and spread    3  (  0.821765,  1.130188,  0.972509 )     3.50065289
  WF centre and spread    4  (  0.821765,  1.130188,  0.972509 )     3.50065289
  WF centre and spread    5  (  0.824555,  1.130188,  0.999802 )     3.51903911
  WF centre and spread    6  (  0.824555,  1.130188,  0.999802 )     3.51903911
  WF centre and spread    7  (  0.834770,  1.130188,  0.929556 )     3.49726696
  WF centre and spread    8  (  0.834770,  1.130188,  0.929556 )     3.49726693
  WF centre and spread    9  ( -0.853663, -1.130188, -0.976248 )     1.51169556
  WF centre and spread   10  ( -0.853663, -1.130188, -0.976248 )     1.51169556
  WF centre and spread   11  ( -0.821765, -1.130188, -0.972509 )     3.50065289
  WF centre and spread   12  ( -0.821765, -1.130188, -0.972509 )     3.50065288
  WF centre and spread   13  ( -0.824555, -1.130188, -0.999802 )     3.51903911
  WF centre and spread   14  ( -0.824555, -1.130188, -0.999802 )     3.51903911
  WF centre and spread   15  ( -0.834770, -1.130188, -0.929556 )     3.49726695
  WF centre and spread   16  ( -0.834770, -1.130188, -0.929556 )     3.49726694
  Sum of centres and spreads (  0.000000, -0.000000,  0.000000 )    48.11461799

      0     0.481E+02     0.0000000000       48.1146181629       0.00  <-- CONV
        O_D=      0.0408718 O_OD=     11.5047867 O_TOT=     48.1146182 <-- SPRD
 ------------------------------------------------------------------------------
 Final State
  WF centre and spread    1  (  0.853663,  1.130188,  0.976248 )     1.51169556
  WF centre and spread    2  (  0.853663,  1.130188,  0.976248 )     1.51169556
  WF centre and spread    3  (  0.821765,  1.130188,  0.972509 )     3.50065289
  WF centre and spread    4  (  0.821765,  1.130188,  0.972509 )     3.50065289
  WF centre and spread    5  (  0.824555,  1.130188,  0.999802 )     3.51903911
  WF centre and spread    6  (  0.824555,  1.130188,  0.999802 )     3.51903911
  WF centre and spread    7  (  0.834770,  1.130188,  0.929556 )     3.49726696
  WF centre and spread    8  (  0.834770,  1.130188,  0.929556 )     3.49726693
  WF centre and spread    9  ( -0.853663, -1.130188, -0.976248 )     1.51169556
  WF centre and spread   10  ( -0.853663, -1.130188, -0.976248 )     1.51169556
  WF centre and spread   11  ( -0.821765, -1.130188, -0.972509 )     3.50065289
  WF centre and spread   12  ( -0.821765, -1.130188, -0.972509 )     3.50065288
  WF centre and spread   13  ( -0.824555, -1.130188, -0.999802 )     3.51903911
  WF centre and spread   14  ( -0.824555, -1.130188, -0.999802 )     3.51903911
  WF centre and spread   15  ( -0.834770, -1.130188, -0.929556 )     3.49726695
  WF centre and spread   16  ( -0.834770, -1.130188, -0.929556 )     3.49726694
  Sum of centres and spreads (  0.000000, -0.000000,  0.000000 )    48.11461799

         Spreads (Ang^2)       Omega I      =    36.568959627
        ================       Omega D      =     0.040871839
                               Omega OD     =    11.504786697
    Final Spread (Ang^2)       Omega Total  =    48.114618163
 ------------------------------------------------------------------------------
 Time for wannierise            0.087 (sec)

 Writing checkpoint file wannier90.chk... done

 Time for plotting              0.000 (sec)
 Total Execution Time           5.087 (sec)

 *===========================================================================*
 |                             TIMING INFORMATION                            |
 *===========================================================================*
 |    Tag                                                Ncalls      Time (s)|
 |---------------------------------------------------------------------------|
 |kmesh: get                                        :         1         1.239|
 |overlap: allocate                                 :         1         0.002|
 |overlap: read                                     :         1         2.919|
 |dis: main                                         :         1         0.366|
 |wann: main                                        :         1         0.087|
 |plot: main                                        :         1         0.000|
 *---------------------------------------------------------------------------*

 All done: wannier90 exiting

             +---------------------------------------------------+
             |                                                   |
             |                   WANNIER90                       |
             |                                                   |
             +---------------------------------------------------+
             |                                                   |
             |        Welcome to the Maximally-Localized         |
             |        Generalized Wannier Functions code         |
             |            http://www.wannier.org                 |
             |                                                   |
             |                                                   |
             |  Wannier90 Developer Group:                       |
             |    Giovanni Pizzi    (EPFL)                       |
             |    Valerio Vitale    (Cambridge)                  |
             |    David Vanderbilt  (Rutgers University)         |
             |    Nicola Marzari    (EPFL)                       |
             |    Ivo Souza         (Universidad del Pais Vasco) |
             |    Arash A. Mostofi  (Imperial College London)    |
             |    Jonathan R. Yates (University of Oxford)       |
             |                                                   |
             |  For the full list of Wannier90 3.x authors,      |
             |  please check the code documentation and the      |
             |  README on the GitHub page of the code            |
             |                                                   |
             |                                                   |
             |  Please cite                                      |
             |                                                   |
             |  [ref] "Wannier90 as a community code:            |
             |        new features and applications",            |
             |        G. Pizzi et al., J. Phys. Cond. Matt. 32,  |
             |        165902 (2020).                             |
             |        http://doi.org/10.1088/1361-648X/ab51ff    |
             |                                                   |
             |  in any publications arising from the use of      |
             |  this code. For the method please cite            |
             |                                                   |
             |  [ref] "Maximally Localized Generalised Wannier   |
             |         Functions for Composite Energy Bands"     |
             |         N. Marzari and D. Vanderbilt              |
             |         Phys. Rev. B 56 12847 (1997)              |
             |                                                   |
             |  [ref] "Maximally Localized Wannier Functions     |
             |         for Entangled Energy Bands"               |
             |         I. Souza, N. Marzari and D. Vanderbilt    |
             |         Phys. Rev. B 65 035109 (2001)             |
             |                                                   |
             |                                                   |
             | Copyright (c) 1996-2020                           |
             |        The Wannier90 Developer Group and          |
             |        individual contributors                    |
             |                                                   |
             |      Release: 3.1.0        5th March    2020      |
             |                                                   |
             | This program is free software; you can            |
             | redistribute it and/or modify it under the terms  |
             | of the GNU General Public License as published by |
             | the Free Software Foundation; either version 2 of |
             | the License, or (at your option) any later version|
             |                                                   |
             | This program is distributed in the hope that it   |
             | will be useful, but WITHOUT ANY WARRANTY; without |
             | even the implied warranty of MERCHANTABILITY or   |
             | FITNESS FOR A PARTICULAR PURPOSE. See the GNU     |
             | General Public License for more details.          |
             |                                                   |
             | You should have received a copy of the GNU General|
             | Public License along with this program; if not,   |
             | write to the Free Software Foundation, Inc.,      |
             | 675 Mass Ave, Cambridge, MA 02139, USA.           |
             |                                                   |
             +---------------------------------------------------+
             |    Execution started on 13Jul2025 at 18:11:40     |
             +---------------------------------------------------+
 
 ******************************************************************************
 * -> Using CODATA 2006 constant values                                       *
 *    (http://physics.nist.gov/cuu/Constants/index.html)                      *
 * -> Using Bohr value from CODATA                                            *
 ******************************************************************************
 

 Running in serial (with serial executable)

                                    ------
                                    SYSTEM
                                    ------

                              Lattice Vectors (Ang)
                    a_1     4.083159  -2.260377  -0.001130
                    a_2     4.083159   2.260377  -0.001130
                    a_3     2.832874   0.000000   3.708951

                   Unit Cell Volume:      68.47783  (Ang^3)

                        Reciprocal-Space Vectors (Ang^-1)
                    b_1     0.769240  -1.389854  -0.587541
                    b_2     0.769240   1.389854  -0.587541
                    b_3     0.000469   0.000000   1.693702
  
 *----------------------------------------------------------------------------*
 |   Site       Fractional Coordinate          Cartesian Coordinate (Ang)     |
 +----------------------------------------------------------------------------+
 | Bi   1   0.76308   0.26308   0.26308   |    4.93530  -1.13019   0.97461    |
 | Bi   2   0.23692   0.73692   0.73692   |    6.06389   1.13019   2.73208    |
 *----------------------------------------------------------------------------*
                                ------------
                                K-POINT GRID
                                ------------
  
             Grid size =  8 x  8 x  8      Total points =  512
  
  
 *---------------------------------- MAIN ------------------------------------*
 |  Number of Wannier Functions               :                16             |
 |  Number of Objective Wannier Functions     :                16             |
 |  Number of input Bloch states              :                26             |
 |  Output verbosity (1=low, 5=high)          :                 1             |
 |  Timing Level (1=low, 5=high)              :                 1             |
 |  Optimisation (0=memory, 3=speed)          :                 3             |
 |  Length Unit                               :               Ang             |
 |  Post-processing setup (write *.nnkp)      :                 F             |
 |  Using Gamma-only branch of algorithms     :                 F             |
 *----------------------------------------------------------------------------*
 *------------------------------- WANNIERISE ---------------------------------*
 |  Total number of iterations                :                 0             |
 |  Number of CG steps before reset           :                 5             |
 |  Trial step length for line search         :             2.000             |
 |  Convergence tolerence                     :         0.100E-09             |
 |  Convergence window                        :                -1             |
 |  Iterations between writing output         :                 1             |
 |  Iterations between backing up to disk     :               100             |
 |  Write r^2_nm to file                      :                 F             |
 |  Write xyz WF centres to file              :                 F             |
 |  Write on-site energies <0n|H|0n> to file  :                 F             |
 |  Use guiding centre to control phases      :                 F             |
 |  Use phases for initial projections        :                 F             |
 *----------------------------------------------------------------------------*
 *------------------------------- DISENTANGLE --------------------------------*
 |  Using band disentanglement                :                 T             |
 |  Total number of iterations                :                 0             |
 |  Mixing ratio                              :             0.500             |
 |  Convergence tolerence                     :         1.000E-10             |
 |  Convergence window                        :                 3             |
 *----------------------------------------------------------------------------*
 *-------------------------------- PLOTTING ----------------------------------*
 |  Plotting interpolated bandstructure       :                 T             |
 |   Number of K-path sections                :                 9             |
 |   Divisions along first K-path section     :                40             |
 |   Output format                            :          gnuplot              |
 |   Output mode                              :               s-k             |
 *----------------------------------------------------------------------------*
 |   K-space path sections:                                                   |
 |    From: G       0.000  0.000  0.000     To: L       0.500  0.000  0.000   |
 |    From: L       0.500  0.000  0.000     To: B1      0.500  0.242 -0.242   |
 |    From: B       0.758  0.500  0.242     To: Z       0.500  0.500  0.500   |
 |    From: Z       0.500  0.500  0.500     To: G       0.000  0.000  0.000   |
 |    From: G       0.000  0.000  0.000     To: X       0.371  0.000 -0.371   |
 |    From: Q       0.629  0.371  0.000     To: F       0.500  0.500  0.000   |
 |    From: F       0.500  0.500  0.000     To: P1      0.629  0.629  0.242   |
 |    From: P1      0.629  0.629  0.242     To: Z       0.500  0.500  0.500   |
 |    From: L       0.500  0.000  0.000     To: P       0.758  0.371  0.371   |
 *----------------------------------------------------------------------------*
 |  Plotting Hamiltonian in WF basis          :                 T             |
 *----------------------------------------------------------------------------*
 Time to read parameters        0.054 (sec)

 *---------------------------------- K-MESH ----------------------------------*
 +----------------------------------------------------------------------------+
 |                    Distance to Nearest-Neighbour Shells                    |
 |                    ------------------------------------                    |
 |          Shell             Distance (Ang^-1)          Multiplicity         |
 |          -----             -----------------          ------------         |
 |             1                   0.202998                      2            |
 |             2                   0.211713                      6            |
 |             3                   0.241988                      6            |
 |             4                   0.336902                      6            |
 |             5                   0.347463                      6            |
 |             6                   0.393333                      6            |
 |             7                   0.402417                     12            |
 |             8                   0.405996                      2            |
 |             9                   0.406882                      6            |
 |            10                   0.423426                      6            |
 |            11                   0.483977                      6            |
 |            12                   0.514393                      6            |
 |            13                   0.524826                      6            |
 |            14                   0.534382                     12            |
 |            15                   0.535055                     12            |
 |            16                   0.547741                     12            |
 |            17                   0.577304                      6            |
 |            18                   0.595789                     12            |
 |            19                   0.601824                      6            |
 |            20                   0.608995                      2            |
 |            21                   0.620750                      6            |
 |            22                   0.629422                     12            |
 |            23                   0.635138                     12            |
 |            24                   0.673803                      6            |
 |            25                   0.694927                      6            |
 |            26                   0.701146                     12            |
 |            27                   0.705771                      6            |
 |            28                   0.711380                     12            |
 |            29                   0.723969                     12            |
 |            30                   0.725965                     12            |
 |            31                   0.726461                     12            |
 |            32                   0.735854                     12            |
 |            33                   0.758117                     12            |
 |            34                   0.770886                      6            |
 |            35                   0.772286                     12            |
 |            36                   0.786666                      6            |
 +----------------------------------------------------------------------------+
 | The b-vectors are chosen automatically                                     |
 | The following shells are used:   1,  2                                     |
 +----------------------------------------------------------------------------+
 |                        Shell   # Nearest-Neighbours                        |
 |                        -----   --------------------                        |
 |                          1               2                                 |
 |                          2               6                                 |
 +----------------------------------------------------------------------------+
 | Completeness relation is fully satisfied [Eq. (B1), PRB 56, 12847 (1997)]  |
 +----------------------------------------------------------------------------+
 |                  b_k Vectors (Ang^-1) and Weights (Ang^2)                  |
 |                  ----------------------------------------                  |
 |            No.         b_k(x)      b_k(y)      b_k(z)        w_b           |
 |            ---        --------------------------------     --------        |
 |             1         0.192369    0.000000    0.064828     9.372524        |
 |             2        -0.192369    0.000000   -0.064828     9.372524        |
 |             3         0.096155   -0.173732   -0.073443     8.282890        |
 |             4        -0.096155    0.173732    0.073443     8.282890        |
 |             5         0.096155    0.173732   -0.073443     8.282890        |
 |             6        -0.096155   -0.173732    0.073443     8.282890        |
 |             7         0.000059    0.000000    0.211713     8.282890        |
 |             8        -0.000059    0.000000   -0.211713     8.282890        |
 +----------------------------------------------------------------------------+
 |                           b_k Directions (Ang^-1)                          |
 |                           -----------------------                          |
 |            No.           x           y           z                         |
 |            ---        --------------------------------                     |
 |             1         0.192369    0.000000    0.064828                     |
 |             2         0.096155   -0.173732   -0.073443                     |
 |             3         0.096155    0.173732   -0.073443                     |
 |             4         0.000059    0.000000    0.211713                     |
 +----------------------------------------------------------------------------+
  
 Time to get kmesh              1.106 (sec)
 *============================================================================*
 |                              MEMORY ESTIMATE                               |
 |         Maximum RAM allocated during each phase of the calculation         |
 *============================================================================*
 |                        Disentanglement           67.28 Mb                  |
 |                            Wannierise:           46.08 Mb                  |
 |                          plot_wannier:           46.08 Mb                  |
 *----------------------------------------------------------------------------*
  
 Reading restart information from file wannier90.chk :
 written on 13Jul2025 at 18:11:36 ... done

 Restarting Wannier90 from plotting routines ...

 *---------------------------------------------------------------------------*
 |                               PLOTTING                                    |
 *---------------------------------------------------------------------------*


 Calculating interpolated band-structure

 Time to calculate interpolated band structure       4.290 (sec)

 Time for plotting              4.906 (sec)
 Total Execution Time           6.098 (sec)

 *===========================================================================*
 |                             TIMING INFORMATION                            |
 *===========================================================================*
 |    Tag                                                Ncalls      Time (s)|
 |---------------------------------------------------------------------------|
 |kmesh: get                                        :         1         1.106|
 |plot: main                                        :         1         4.906|
 *---------------------------------------------------------------------------*

 All done: wannier90 exiting
      0.500  0.000  0.000     To: P       0.758  0.371  0.371   |
 *----------------------------------------------------------------------------*
 |  Plotting Hamiltonian in WF basis          :                 T             |
 *----------------------------------------------------------------------------*
 Time to read parameters        0.093 (sec)

 *---------------------------------- K-MESH ----------------------------------*
 +----------------------------------------------------------------------------+
 |                    Distance to Nearest-Neighbour Shells                    |
 |                    ------------------------------------                    |
 |          Shell             Distance (Ang^-1)          Multiplicity         |
 |          -----             -----------------          ------------         |
 |             1                   0.202998                      2            |
 |             2                   0.211713                      6            |
 |             3                   0.241988                      6            |
 |             4                   0.336902                      6            |
 |             5                   0.347463                      6            |
 |             6                   0.393333                      6            |
 |             7                   0.402417                     12            |
 |             8                   0.405996                      2            |
 |             9                   0.406882                      6            |
 |            10                   0.423426                      6            |
 |            11                   0.483977                      6            |
 |            12                   0.514393                      6            |
 |            13                   0.524826                      6            |
 |            14                   0.534382                     12            |
 |            15                   0.535055                     12            |
 |            16                   0.547741                     12            |
 |            17                   0.577304                      6            |
 |            18                   0.595789                     12            |
 |            19                   0.601824                      6            |
 |            20                   0.608995                      2            |
 |            21                   0.620750                      6            |
 |            22                   0.629422                     12            |
 |            23                   0.635138                     12            |
 |            24                   0.673803                      6            |
 |            25                   0.694927                      6            |
 |            26                   0.701146                     12            |
 |            27                   0.705771                      6            |
 |            28                   0.711380                     12            |
 |            29                   0.723969                     12            |
 |            30                   0.725965                     12            |
 |            31                   0.726461                     12            |
 |            32                   0.735854                     12            |
 |            33                   0.758117                     12            |
 |            34                   0.770886                      6            |
 |            35                   0.772286                     12            |
 |            36                   0.786666                      6            |
 +----------------------------------------------------------------------------+
 | The b-vectors are chosen automatically                                     |
 | The following shells are used:   1,  2                                     |
 +----------------------------------------------------------------------------+
 |                        Shell   # Nearest-Neighbours                        |
 |                        -----   --------------------                        |
 |                          1               2                                 |
 |                          2               6                                 |
 +----------------------------------------------------------------------------+
 | Completeness relation is fully satisfied [Eq. (B1), PRB 56, 12847 (1997)]  |
 +----------------------------------------------------------------------------+
 |                  b_k Vectors (Ang^-1) and Weights (Ang^2)                  |
 |                  ----------------------------------------                  |
 |            No.         b_k(x)      b_k(y)      b_k(z)        w_b           |
 |            ---        --------------------------------     --------        |
 |             1         0.192369    0.000000    0.064828     9.372524        |
 |             2        -0.192369    0.000000   -0.064828     9.372524        |
 |             3         0.096155   -0.173732   -0.073443     8.282890        |
 |             4        -0.096155    0.173732    0.073443     8.282890        |
 |             5         0.096155    0.173732   -0.073443     8.282890        |
 |             6        -0.096155   -0.173732    0.073443     8.282890        |
 |             7         0.000059    0.000000    0.211713     8.282890        |
 |             8        -0.000059    0.000000   -0.211713     8.282890        |
 +----------------------------------------------------------------------------+
 |                           b_k Directions (Ang^-1)                          |
 |                           -----------------------                          |
 |            No.           x           y           z                         |
 |            ---        --------------------------------                     |
 |             1         0.192369    0.000000    0.064828                     |
 |             2         0.096155   -0.173732   -0.073443                     |
 |             3         0.096155    0.173732   -0.073443                     |
 |             4         0.000059    0.000000    0.211713                     |
 +----------------------------------------------------------------------------+
  
 Time to get kmesh              1.291 (sec)
 *============================================================================*
 |                              MEMORY ESTIMATE                               |
 |         Maximum RAM allocated during each phase of the calculation         |
 *============================================================================*
 |                        Disentanglement           67.28 Mb                  |
 |                            Wannierise:           46.08 Mb                  |
 |                          plot_wannier:           46.08 Mb                  |
 *----------------------------------------------------------------------------*
  
 Reading restart information from file wannier90.chk :
 written on 13Jul2025 at 18:11:36 ... done

 Restarting Wannier90 from plotting routines ...

 *---------------------------------------------------------------------------*
 |                               PLOTTING                                    |
 *---------------------------------------------------------------------------*


 Calculating interpolated band-structure

 Time to calculate interpolated band structure       4.306 (sec)

 Time for plotting              5.225 (sec)
 Total Execution Time           6.651 (sec)

 *===========================================================================*
 |                             TIMING INFORMATION                            |
 *===========================================================================*
 |    Tag                                                Ncalls      Time (s)|
 |---------------------------------------------------------------------------|
 |kmesh: get                                        :         1         1.291|
 |plot: main                                        :         1         5.225|
 *---------------------------------------------------------------------------*

 All done: wannier90 exiting
      0.500  0.000  0.000     To: P       0.758  0.371  0.371   |
 *----------------------------------------------------------------------------*
 |  Plotting Hamiltonian in WF basis          :                 T             |
 *----------------------------------------------------------------------------*
 Time to read parameters        0.094 (sec)

 *---------------------------------- K-MESH ----------------------------------*
 +----------------------------------------------------------------------------+
 |                    Distance to Nearest-Neighbour Shells                    |
 |                    ------------------------------------                    |
 |          Shell             Distance (Ang^-1)          Multiplicity         |
 |          -----             -----------------          ------------         |
 |             1                   0.202998                      2            |
 |             2                   0.211713                      6            |
 |             3                   0.241988                      6            |
 |             4                   0.336902                      6            |
 |             5                   0.347463                      6            |
 |             6                   0.393333                      6            |
 |             7                   0.402417                     12            |
 |             8                   0.405996                      2            |
 |             9                   0.406882                      6            |
 |            10                   0.423426                      6            |
 |            11                   0.483977                      6            |
 |            12                   0.514393                      6            |
 |            13                   0.524826                      6            |
 |            14                   0.534382                     12            |
 |            15                   0.535055                     12            |
 |            16                   0.547741                     12            |
 |            17                   0.577304                      6            |
 |            18                   0.595789                     12            |
 |            19                   0.601824                      6            |
 |            20                   0.608995                      2            |
 |            21                   0.620750                      6            |
 |            22                   0.629422                     12            |
 |            23                   0.635138                     12            |
 |            24                   0.673803                      6            |
 |            25                   0.694927                      6            |
 |            26                   0.701146                     12            |
 |            27                   0.705771                      6            |
 |            28                   0.711380                     12            |
 |            29                   0.723969                     12            |
 |            30                   0.725965                     12            |
 |            31                   0.726461                     12            |
 |            32                   0.735854                     12            |
 |            33                   0.758117                     12            |
 |            34                   0.770886                      6            |
 |            35                   0.772286                     12            |
 |            36                   0.786666                      6            |
 +----------------------------------------------------------------------------+
 | The b-vectors are chosen automatically                                     |
 | The following shells are used:   1,  2                                     |
 +----------------------------------------------------------------------------+
 |                        Shell   # Nearest-Neighbours                        |
 |                        -----   --------------------                        |
 |                          1               2                                 |
 |                          2               6                                 |
 +----------------------------------------------------------------------------+
 | Completeness relation is fully satisfied [Eq. (B1), PRB 56, 12847 (1997)]  |
 +----------------------------------------------------------------------------+
 |                  b_k Vectors (Ang^-1) and Weights (Ang^2)                  |
 |                  ----------------------------------------                  |
 |            No.         b_k(x)      b_k(y)      b_k(z)        w_b           |
 |            ---        --------------------------------     --------        |
 |             1         0.192369    0.000000    0.064828     9.372524        |
 |             2        -0.192369    0.000000   -0.064828     9.372524        |
 |             3         0.096155   -0.173732   -0.073443     8.282890        |
 |             4        -0.096155    0.173732    0.073443     8.282890        |
 |             5         0.096155    0.173732   -0.073443     8.282890        |
 |             6        -0.096155   -0.173732    0.073443     8.282890        |
 |             7         0.000059    0.000000    0.211713     8.282890        |
 |             8        -0.000059    0.000000   -0.211713     8.282890        |
 +----------------------------------------------------------------------------+
 |                           b_k Directions (Ang^-1)                          |
 |                           -----------------------                          |
 |            No.           x           y           z                         |
 |            ---        --------------------------------                     |
 |             1         0.192369    0.000000    0.064828                     |
 |             2         0.096155   -0.173732   -0.073443                     |
 |             3         0.096155    0.173732   -0.073443                     |
 |             4         0.000059    0.000000    0.211713                     |
 +----------------------------------------------------------------------------+
  
 Time to get kmesh              1.288 (sec)
 *============================================================================*
 |                              MEMORY ESTIMATE                               |
 |         Maximum RAM allocated during each phase of the calculation         |
 *============================================================================*
 |                        Disentanglement           67.28 Mb                  |
 |                            Wannierise:           46.08 Mb                  |
 |                          plot_wannier:           46.08 Mb                  |
 *----------------------------------------------------------------------------*
  
 Reading restart information from file wannier90.chk :
 written on 13Jul2025 at 18:11:36 ... done

 Restarting Wannier90 from plotting routines ...

 *---------------------------------------------------------------------------*
 |                               PLOTTING                                    |
 *---------------------------------------------------------------------------*


 Calculating interpolated band-structure

 Time to calculate interpolated band structure       4.302 (sec)

 Time for plotting              5.246 (sec)
 Total Execution Time           6.667 (sec)

 *===========================================================================*
 |                             TIMING INFORMATION                            |
 *===========================================================================*
 |    Tag                                                Ncalls      Time (s)|
 |---------------------------------------------------------------------------|
 |kmesh: get                                        :         1         1.288|
 |plot: main                                        :         1         5.246|
 *---------------------------------------------------------------------------*

 All done: wannier90 exiting
      0.500  0.000  0.000     To: P       0.758  0.371  0.371   |
 *----------------------------------------------------------------------------*
 |  Plotting Hamiltonian in WF basis          :                 T             |
 *----------------------------------------------------------------------------*
 Time to read parameters        0.093 (sec)

 *---------------------------------- K-MESH ----------------------------------*
 +----------------------------------------------------------------------------+
 |                    Distance to Nearest-Neighbour Shells                    |
 |                    ------------------------------------                    |
 |          Shell             Distance (Ang^-1)          Multiplicity         |
 |          -----             -----------------          ------------         |
 |             1                   0.202998                      2            |
 |             2                   0.211713                      6            |
 |             3                   0.241988                      6            |
 |             4                   0.336902                      6            |
 |             5                   0.347463                      6            |
 |             6                   0.393333                      6            |
 |             7                   0.402417                     12            |
 |             8                   0.405996                      2            |
 |             9                   0.406882                      6            |
 |            10                   0.423426                      6            |
 |            11                   0.483977                      6            |
 |            12                   0.514393                      6            |
 |            13                   0.524826                      6            |
 |            14                   0.534382                     12            |
 |            15                   0.535055                     12            |
 |            16                   0.547741                     12            |
 |            17                   0.577304                      6            |
 |            18                   0.595789                     12            |
 |            19                   0.601824                      6            |
 |            20                   0.608995                      2            |
 |            21                   0.620750                      6            |
 |            22                   0.629422                     12            |
 |            23                   0.635138                     12            |
 |            24                   0.673803                      6            |
 |            25                   0.694927                      6            |
 |            26                   0.701146                     12            |
 |            27                   0.705771                      6            |
 |            28                   0.711380                     12            |
 |            29                   0.723969                     12            |
 |            30                   0.725965                     12            |
 |            31                   0.726461                     12            |
 |            32                   0.735854                     12            |
 |            33                   0.758117                     12            |
 |            34                   0.770886                      6            |
 |            35                   0.772286                     12            |
 |            36                   0.786666                      6            |
 +----------------------------------------------------------------------------+
 | The b-vectors are chosen automatically                                     |
 | The following shells are used:   1,  2                                     |
 +----------------------------------------------------------------------------+
 |                        Shell   # Nearest-Neighbours                        |
 |                        -----   --------------------                        |
 |                          1               2                                 |
 |                          2               6                                 |
 +----------------------------------------------------------------------------+
 | Completeness relation is fully satisfied [Eq. (B1), PRB 56, 12847 (1997)]  |
 +----------------------------------------------------------------------------+
 |                  b_k Vectors (Ang^-1) and Weights (Ang^2)                  |
 |                  ----------------------------------------                  |
 |            No.         b_k(x)      b_k(y)      b_k(z)        w_b           |
 |            ---        --------------------------------     --------        |
 |             1         0.192369    0.000000    0.064828     9.372524        |
 |             2        -0.192369    0.000000   -0.064828     9.372524        |
 |             3         0.096155   -0.173732   -0.073443     8.282890        |
 |             4        -0.096155    0.173732    0.073443     8.282890        |
 |             5         0.096155    0.173732   -0.073443     8.282890        |
 |             6        -0.096155   -0.173732    0.073443     8.282890        |
 |             7         0.000059    0.000000    0.211713     8.282890        |
 |             8        -0.000059    0.000000   -0.211713     8.282890        |
 +----------------------------------------------------------------------------+
 |                           b_k Directions (Ang^-1)                          |
 |                           -----------------------                          |
 |            No.           x           y           z                         |
 |            ---        --------------------------------                     |
 |             1         0.192369    0.000000    0.064828                   |    |             2         0.096155   -0.173732   -0.073443                     |
 |             3         0.096155    0.173732   -0.073443                     |
 |             4         0.000059    0.000000    0.211713                     |
 +----------------------------------------------------------------------------+
  
 Time to get kmesh              1.288 (sec)
 *============================================================================*
 |                              MEMORY ESTIMATE                               |
 |         Maximum RAM allocated during each phase of the calculation         |
 *============================================================================*
 |                        Disentanglement           67.28 Mb                  |
 |                            Wannierise:           46.08 Mb                  |
 |                          plot_wannier:           46.08 Mb                  |
 *----------------------------------------------------------------------------*
  
 Reading restart information from file wannier90.chk :
 written on 13Jul2025 at 18:11:36 ... done

 Restarting Wannier90 from plotting routines ...

 *---------------------------------------------------------------------------*
 |                               PLOTTING                                    |
 *---------------------------------------------------------------------------*


 Calculating interpolated band-structure

 Time to calculate interpolated band structure       4.331 (sec)

 Time for plotting              5.261 (sec)
 Total Execution Time           6.683 (sec)

 *===========================================================================*
 |                             TIMING INFORMATION                            |
 *===========================================================================*
 |    Tag                                                Ncalls      Time (s)|
 |---------------------------------------------------------------------------|
 |kmesh: get                                        :         1         1.288|
 |plot: main                                        :         1         5.261|
 *---------------------------------------------------------------------------*

 All done: wannier90 exiting
    -----   --------------------                        |
 |                          1               2                                 |
 |                          2               6                                 |
 +----------------------------------------------------------------------------+
 | Completeness relation is fully satisfied [Eq. (B1), PRB 56, 12847 (1997)]  |
 +----------------------------------------------------------------------------+
 |                  b_k Vectors (Ang^-1) and Weights (Ang^2)                  |
 |                  ----------------------------------------                  |
 |            No.         b_k(x)      b_k(y)      b_k(z)        w_b           |
 |            ---        --------------------------------     --------        |
 |             1         0.192369    0.000000    0.064828     9.372524        |
 |             2        -0.192369    0.000000   -0.064828     9.372524        |
 |             3         0.096155   -0.173732   -0.073443     8.282890        |
 |             4        -0.096155    0.173732    0.073443     8.282890        |
 |             5         0.096155    0.173732   -0.073443     8.282890        |
 |             6        -0.096155   -0.173732    0.073443     8.282890        |
 |             7         0.000059    0.000000    0.211713     8.282890        |
 |             8        -0.000059    0.000000   -0.211713     8.282890        |
 +----------------------------------------------------------------------------+
 |                           b_k Directions (Ang^-1)                          |
 |                           -----------------------                          |
 |            No.           x           y           z                         |
 |            ---        --------------------------------                     |
 |             1         0.192369    0.000000    0.064828                     |
 |             2         0.096155   -0.173732   -0.073443                     |
 |             3         0.096155    0.173732   -0.073443                     |
 |             4         0.000059    0.000000    0.211713                     |
 +----------------------------------------------------------------------------+
  
 Time to get kmesh              1.292 (sec)
 *============================================================================*
 |                              MEMORY ESTIMATE                               |
 |         Maximum RAM allocated during each phase of the calculation         |
 *============================================================================*
 |                        Disentanglement           67.28 Mb                  |
 |                            Wannierise:           46.08 Mb                  |
 |                          plot_wannier:           46.08 Mb                  |
 *----------------------------------------------------------------------------*
  
 Reading restart information from file wannier90.chk :
 written on 13Jul2025 at 18:11:36 ... done

 Restarting Wannier90 from plotting routines ...

 *---------------------------------------------------------------------------*
 |                               PLOTTING                                    |
 *---------------------------------------------------------------------------*


 Calculating interpolated band-structure

 Time to calculate interpolated band structure       4.325 (sec)

 Time for plotting              5.264 (sec)
 Total Execution Time           6.690 (sec)

 *===========================================================================*
 |                             TIMING INFORMATION                            |
 *===========================================================================*
 |    Tag                                                Ncalls      Time (s)|
 |---------------------------------------------------------------------------|
 |kmesh: get                                        :         1         1.292|
 |plot: main                                        :         1         5.264|
 *---------------------------------------------------------------------------*

 All done: wannier90 exiting
----------                        |
 |                          1               2                                 |
 |                          2               6                                 |
 +----------------------------------------------------------------------------+
 | Completeness relation is fully satisfied [Eq. (B1), PRB 56, 12847 (1997)]  |
 +----------------------------------------------------------------------------+
 |                  b_k Vectors (Ang^-1) and Weights (Ang^2)                  |
 |                  ----------------------------------------                  |
 |            No.         b_k(x)      b_k(y)      b_k(z)        w_b           |
 |            ---        --------------------------------     --------        |
 |             1         0.192369    0.000000    0.064828     9.372524        |
 |             2        -0.192369    0.000000   -0.064828     9.372524        |
 |             3         0.096155   -0.173732   -0.073443     8.282890        |
 |             4        -0.096155    0.173732    0.073443     8.282890        |
 |             5         0.096155    0.173732   -0.073443     8.282890        |
 |             6        -0.096155   -0.173732    0.073443     8.282890        |
 |             7         0.000059    0.000000    0.211713     8.282890        |
 |             8        -0.000059    0.000000   -0.211713     8.282890        |
 +----------------------------------------------------------------------------+
 |                           b_k Directions (Ang^-1)                          |
 |                           -----------------------                          |
 |            No.           x           y           z                         |
 |            ---        --------------------------------                     |
 |             1         0.192369    0.000000    0.064828                   |    |             2         0.096155   -0.173732   -0.073443                     |
 |             3         0.096155    0.173732   -0.073443                     |
 |             4         0.000059    0.000000    0.211713                     |
 +----------------------------------------------------------------------------+
  
 Time to get kmesh              1.286 (sec)
 *============================================================================*
 |                              MEMORY ESTIMATE                               |
 |         Maximum RAM allocated during each phase of the calculation         |
 *============================================================================*
 |                        Disentanglement           67.28 Mb                  |
 |                            Wannierise:           46.08 Mb                  |
 |                          plot_wannier:           46.08 Mb                  |
 *----------------------------------------------------------------------------*
  
 Reading restart information from file wannier90.chk :
 written on 13Jul2025 at 18:11:36 ... done

 Restarting Wannier90 from plotting routines ...

 *---------------------------------------------------------------------------*
 |                               PLOTTING                                    |
 *---------------------------------------------------------------------------*


 Calculating interpolated band-structure

 Time to calculate interpolated band structure       4.305 (sec)

 Time for plotting              5.245 (sec)
 Total Execution Time           6.665 (sec)

 *===========================================================================*
 |                             TIMING INFORMATION                            |
 *===========================================================================*
 |    Tag                                                Ncalls      Time (s)|
 |---------------------------------------------------------------------------|
 |kmesh: get                                        :         1         1.286|
 |plot: main                                        :         1         5.245|
 *---------------------------------------------------------------------------*

 All done: wannier90 exiting
500   |
 |    From: L       0.500  0.000  0.000     To: P       0.758  0.371  0.371   |
 *----------------------------------------------------------------------------*
 |  Plotting Hamiltonian in WF basis          :                 T             |
 *----------------------------------------------------------------------------*
 Time to read parameters        0.092 (sec)

 *---------------------------------- K-MESH ----------------------------------*
 +----------------------------------------------------------------------------+
 |                    Distance to Nearest-Neighbour Shells                    |
 |                    ------------------------------------                    |
 |          Shell             Distance (Ang^-1)          Multiplicity         |
 |          -----             -----------------          ------------         |
 |             1                   0.202998                      2            |
 |             2                   0.211713                      6            |
 |             3                   0.241988                      6            |
 |             4                   0.336902                      6            |
 |             5                   0.347463                      6            |
 |             6                   0.393333                      6            |
 |             7                   0.402417                     12            |
 |             8                   0.405996                      2            |
 |             9                   0.406882                      6            |
 |            10                   0.423426                      6            |
 |            11                   0.483977                      6            |
 |            12                   0.514393                      6            |
 |            13                   0.524826                      6            |
 |    |             2         0.096155   -0.173732   -0.073443                     |
 |             3         0.096155    0.173732   -0.073443                     |
 |             4         0.000059    0.000000    0.211713                     |
 +----------------------------------------------------------------------------+
  
 Time to get kmesh              1.286 (sec)
 *============================================================================*
 |                              MEMORY ESTIMATE                               |
 |         Maximum RAM allocated during each phase of the calculation         |
 *============================================================================*
 |                        Disentanglement           67.28 Mb                  |
 |                            Wannierise:           46.08 Mb                  |
 |                          plot_wannier:           46.08 Mb                  |
 *----------------------------------------------------------------------------*
  
 Reading restart information from file wannier90.chk :
 written on 13Jul2025 at 18:11:36 ... done

 Restarting Wannier90 from plotting routines ...

 *---------------------------------------------------------------------------*
 |                               PLOTTING                                    |
 *---------------------------------------------------------------------------*


 Calculating interpolated band-structure

 Time to calculate interpolated band structure       4.310 (sec)

 Time for plotting              5.248 (sec)
 Total Execution Time           6.667 (sec)

 *===========================================================================*
 |                             TIMING INFORMATION                            |
 *===========================================================================*
 |    Tag                                                Ncalls      Time (s)|
 |---------------------------------------------------------------------------|
 |kmesh: get                                        :         1         1.286|
 |plot: main                                        :         1         5.248|
 *---------------------------------------------------------------------------*

 All done: wannier90 exiting
500   |
 |    From: L       0.500  0.000  0.000     To: P       0.758  0.371  0.371   |
 *----------------------------------------------------------------------------*
 |  Plotting Hamiltonian in WF basis          :                 T             |
 *----------------------------------------------------------------------------*
 Time to read parameters        0.101 (sec)

 *---------------------------------- K-MESH ----------------------------------*
 +----------------------------------------------------------------------------+
 |                    Distance to Nearest-Neighbour Shells                    |
 |                    ------------------------------------                    |
 |          Shell             Distance (Ang^-1)          Multiplicity         |
 |          -----             -----------------          ------------         |
 |             1                   0.202998                      2            |
 |             2                   0.211713                      6            |
[...]
 |             1         0.192369    0.000000    0.064828     9.372524        |
 |             2        -0.192369    0.000000   -0.064828     9.372524        |
 |             3         0.096155   -0.173732   -0.073443     8.282890        |
 |             4        -0.096155    0.173732    0.073443     8.282890        |
 |             5         0.096155    0.173732   -0.073443     8.282890        |
 |             6        -0.096155   -0.173732    0.073443     8.282890        |
 |             7         0.000059    0.000000    0.211713     8.282890        |
 |             8        -0.000059    0.000000   -0.211713     8.282890        |
 +----------------------------------------------------------------------------+
 |                           b_k Directions (Ang^-1)                          |
 |                           -----------------------                          |
 |            No.           x           y           z                         |
 |            ---        --------------------------------                     |
 |             1         0.192369    0.000000    0.064828                     |
 |             2         0.096155   -0.173732   -0.073443                     |
 |             3         0.096155    0.173732   -0.073443                     |
 |             4         0.000059    0.000000    0.211713                     |
 +----------------------------------------------------------------------------+
  
 Time to get kmesh              1.271 (sec)
 *============================================================================*
 |                              MEMORY ESTIMATE                               |
 |         Maximum RAM allocated during each phase of the calculation         |
 *============================================================================*
 |                        Disentanglement           67.28 Mb                  |
 |                            Wannierise:           46.08 Mb                  |
 |                          plot_wannier:           46.08 Mb                  |
 *----------------------------------------------------------------------------*
  
 Reading restart information from file wannier90.chk :
 written on 13Jul2025 at 18:11:36 ... done

 Restarting Wannier90 from plotting routines ...

 *---------------------------------------------------------------------------*
 |                               PLOTTING                                    |
 *---------------------------------------------------------------------------*


 Calculating interpolated band-structure

 Time to calculate interpolated band structure       4.292 (sec)

 Time for plotting              5.227 (sec)
 Total Execution Time           6.641 (sec)

 *===========================================================================*
 |                             TIMING INFORMATION                            |
 *===========================================================================*
 |    Tag                                                Ncalls      Time (s)|
 |---------------------------------------------------------------------------|
 |kmesh: get                                        :         1         1.271|
 |plot: main                                        :         1         5.227|
 *---------------------------------------------------------------------------*

 All done: wannier90 exiting
      0.500  0.000  0.000     To: P       0.758  0.371  0.371   |
 *----------------------------------------------------------------------------*
 |  Plotting Hamiltonian in WF basis          :                 T             |
 *----------------------------------------------------------------------------*
 Time to read parameters        0.102 (sec)

 *---------------------------------- K-MESH ----------------------------------*
 +----------------------------------------------------------------------------+
 |                    Distance to Nearest-Neighbour Shells                    |
 |                    ------------------------------------                    |
 |          Shell             Distance (Ang^-1)          Multiplicity         |
 |          -----             -----------------          ------------         |
 |             1                   0.202998                      2            |
 |             2                   0.211713                      6            |
 |             3                   0.241988                      6            |
 |             4                   0.336902                      6            |
 |             5                   0.347463                      6            |
 |             6                   0.393333                      6            |
 |             7                   0.402417                     12            |
 |             8                   0.405996                      2            |
 |             9                   0.406882                      6            |
 |            10                   0.423426                      6            |
 |            11                   0.483977                      6            |
 |            12                   0.514393                      6            |
 |            13                   0.524826                      6            |
 |            14                   0.534382                     12            |
 |            15                   0.535055                     12            |
 |            16                   0.547741                     12            |
 |            17                   0.577304                      6            |
 |            18                   0.595789                     12            |
 |            19                   0.601824                      6            |
 |            20                   0.608995                      2            |
 |            21                   0.620750                      6            |
 |            22                   0.629422                     12            |
 |            23                   0.635138                     12            |
 |            24                   0.673803                      6            |
 |            25                   0.694927                      6            |
 |            26                   0.701146                     12            |
 |            27                   0.705771                      6            |
 |            28                   0.711380                     12            |
 |            29                   0.723969                     12            |
 |            30                   0.725965                     12            |
 |            31                   0.726461                     12            |
 |            32                   0.735854                     12            |
 |            33                   0.758117                     12            |
 |            34                   0.770886                      6            |
 |            35                   0.772286                     12            |
 |            36                   0.786666                      6            |
 +----------------------------------------------------------------------------+
 | The b-vectors are chosen automatically                                     |
 | The following shells are used:   1,  2                                     |
 +----------------------------------------------------------------------------+
 |                        Shell   # Nearest-Neighbours                        |
 |                        -----   --------------------                        |
 |                          1               2                                 |
 |                          2               6                                 |
 +----------------------------------------------------------------------------+
 | Completeness relation is fully satisfied [Eq. (B1), PRB 56, 12847 (1997)]  |
 +----------------------------------------------------------------------------+
 |                  b_k Vectors (Ang^-1) and Weights (Ang^2)                  |
 |                  ----------------------------------------                  |
 |            No.         b_k(x)      b_k(y)      b_k(z)        w_b           |
 |            ---        --------------------------------     --------        |
 |             1         0.192369    0.000000    0.064828     9.372524        |
 |             2        -0.192369    0.000000   -0.064828     9.372524        |
 |             3         0.096155   -0.173732   -0.073443     8.282890        |
 |             4        -0.096155    0.173732    0.073443     8.282890        |
 |             5         0.096155    0.173732   -0.073443     8.282890        |
 |             6        -0.096155   -0.173732    0.073443     8.282890        |
 |             7         0.000059    0.000000    0.211713     8.282890        |
 |             8        -0.000059    0.000000   -0.211713     8.282890        |
 +----------------------------------------------------------------------------+
 |                           b_k Directions (Ang^-1)                          |
 |                           -----------------------                          |
 |            No.           x           y           z                         |
 |            ---        --------------------------------                     |
 |             1         0.192369    0.000000    0.064828                     |
 |             2         0.096155   -0.173732   -0.073443                     |
 |             3         0.096155    0.173732   -0.073443                     |
 |             4         0.000059    0.000000    0.211713                     |
 +----------------------------------------------------------------------------+
  
 Time to get kmesh              1.283 (sec)
 *============================================================================*
 |                              MEMORY ESTIMATE                               |
 |         Maximum RAM allocated during each phase of the calculation         |
 *============================================================================*
 |                        Disentanglement           67.28 Mb                  |
 |                            Wannierise:           46.08 Mb                  |
 |                          plot_wannier:           46.08 Mb                  |
 *----------------------------------------------------------------------------*
  
 Reading restart information from file wannier90.chk :
 written on 13Jul2025 at 18:11:36 ... done

 Restarting Wannier90 from plotting routines ...

 *---------------------------------------------------------------------------*
 |                               PLOTTING                                    |
 *---------------------------------------------------------------------------*


 Calculating interpolated band-structure

 Time to calculate interpolated band structure       4.301 (sec)

 Time for plotting              5.227 (sec)
 Total Execution Time           6.652 (sec)

 *===========================================================================*
 |                             TIMING INFORMATION                            |
 *===========================================================================*
 |    Tag                                                Ncalls      Time (s)|
 |---------------------------------------------------------------------------|
 |kmesh: get                                        :         1         1.283|
 |plot: main                                        :         1         5.227|
 *---------------------------------------------------------------------------*

 All done: wannier90 exiting
      0.500  0.000  0.000     To: P       0.758  0.371  0.371   |
 *----------------------------------------------------------------------------*
 |  Plotting Hamiltonian in WF basis          :                 T             |
 *----------------------------------------------------------------------------*
 Time to read parameters        0.107 (sec)

 *---------------------------------- K-MESH ----------------------------------*
 +----------------------------------------------------------------------------+
 |                    Distance to Nearest-Neighbour Shells                    |
 |                    ------------------------------------                    |
 |          Shell             Distance (Ang^-1)          Multiplicity         |
 |          -----             -----------------          ------------         |
 |             1                   0.202998                      2            |
 |             2                   0.211713                      6            |
 |             3                   0.241988                      6            |
 |             4                   0.336902                      6            |
 |             5                   0.347463                      6            |
 |             6                   0.393333                      6            |
 |             7                   0.402417                     12            |
 |             8                   0.405996                      2            |
 |             9                   0.406882                      6            |
 |            10                   0.423426                      6            |
 |            11                   0.483977                      6            |
 |            12                   0.514393                      6            |
 |            13                   0.524826                      6            |
 |            14                   0.534382                     12            |
 |            15                   0.535055                     12            |
 |            16                   0.547741                     12            |
 |            17                   0.577304                      6            |
 |            18                   0.595789                     12            |
 |            19                   0.601824                      6            |
 |            20                   0.608995                      2            |
 |            21                   0.620750                      6            |
 |            22                   0.629422                     12            |
 |            23                   0.635138                     12            |
 |            24                   0.673803                      6            |
 |            25                   0.694927                      6            |
 |            26                   0.701146                     12            |
 |            27                   0.705771                      6            |
 |            28                   0.711380                     12            |
 |            29                   0.723969                     12            |
 |            30                   0.725965                     12            |
 |            31                   0.726461                     12            |
 |            32                   0.735854                     12            |
 |            33                   0.758117                     12            |
 |            34                   0.770886                      6            |
 |            35                   0.772286                     12            |
 |            36                   0.786666                      6            |
 +----------------------------------------------------------------------------+
 | The b-vectors are chosen automatically                                     |
 | The following shells are used:   1,  2                                     |
 +----------------------------------------------------------------------------+
 |                        Shell   # Nearest-Neighbours                        |
 |                        -----   --------------------                        |
 |                          1               2                                 |
 |                          2               6                                 |
 +----------------------------------------------------------------------------+
 | Completeness relation is fully satisfied [Eq. (B1), PRB 56, 12847 (1997)]  |
 +----------------------------------------------------------------------------+
 |                  b_k Vectors (Ang^-1) and Weights (Ang^2)                  |
 |                  ----------------------------------------                  |
 |            No.         b_k(x)      b_k(y)      b_k(z)        w_b           |
 |            ---        --------------------------------     --------        |
 |             1         0.192369    0.000000    0.064828     9.372524        |
 |             2        -0.192369    0.000000   -0.064828     9.372524        |
 |             3         0.096155   -0.173732   -0.073443     8.282890        |
 |             4        -0.096155    0.173732    0.073443     8.282890        |
 |             5         0.096155    0.173732   -0.073443     8.282890        |
 |             6        -0.096155   -0.173732    0.073443     8.282890        |
 |             7         0.000059    0.000000    0.211713     8.282890        |
 |             8        -0.000059    0.000000   -0.211713     8.282890        |
 +----------------------------------------------------------------------------+
 |                           b_k Directions (Ang^-1)                          |
 |                           -----------------------                          |
 |            No.           x           y           z                         |
 |            ---        --------------------------------                     |
 |             1         0.192369    0.000000    0.064828                     |
 |             2         0.096155   -0.173732   -0.073443                     |
 |             3         0.096155    0.173732   -0.073443                     |
 |             4         0.000059    0.000000    0.211713                     |
 +----------------------------------------------------------------------------+
  
 Time to get kmesh              1.281 (sec)
 *============================================================================*
 |                              MEMORY ESTIMATE                               |
 |         Maximum RAM allocated during each phase of the calculation         |
 *============================================================================*
 |                        Disentanglement           67.28 Mb                  |
 |                            Wannierise:           46.08 Mb                  |
 |                          plot_wannier:           46.08 Mb                  |
 *----------------------------------------------------------------------------*
  
 Reading restart information from file wannier90.chk :
 written on 13Jul2025 at 18:11:36 ... done

 Restarting Wannier90 from plotting routines ...

 *---------------------------------------------------------------------------*
 |                               PLOTTING                                    |
 *---------------------------------------------------------------------------*


 Calculating interpolated band-structure

 Time to calculate interpolated band structure       4.297 (sec)

 Time for plotting              5.236 (sec)
 Total Execution Time           6.663 (sec)

 *===========================================================================*
 |                             TIMING INFORMATION                            |
 *===========================================================================*
 |    Tag                                                Ncalls      Time (s)|
 |---------------------------------------------------------------------------|
 |kmesh: get                                        :         1         1.281|
 |plot: main                                        :         1         5.236|
 *---------------------------------------------------------------------------*

 All done: wannier90 exiting
